ITEM: TIMESTEP
0
ITEM: NUMBER OF ATOMS
1000
ITEM: BOX BOUNDS pp pp pp
0.0000000000000000e+00 1.4005727099999999e+02
0.0000000000000000e+00 1.4005727099999999e+02
0.0000000000000000e+00 1.4005727099999999e+02
ITEM: ATOMS type mol xu yu zu
1 1 133.691032 70.028636 69.528636
1 1 133.686005 70.828620 69.528636
1 1 133.670927 71.628478 69.528636
1 1 133.645798 72.428083 69.528636
1 1 133.610623 73.227309 69.528636
1 1 133.565409 74.026031 69.528636
1 1 133.510161 74.824121 69.528636
1 1 133.444888 75.621453 69.528636
1 1 133.369601 76.417903 69.528636
1 1 133.284313 77.213344 69.528636
1 1 133.189035 78.007650 69.528636
1 1 133.083783 78.800696 69.528636
1 1 132.968575 79.592357 69.528636
1 1 132.843427 80.382507 69.528636
1 1 132.708360 81.171023 69.528636
1 1 132.563396 81.957779 69.528636
1 1 132.408556 82.742652 69.528636
1 1 132.243866 83.525516 69.528636
1 1 132.069352 84.306250 69.528636
1 1 131.885040 85.084729 69.528636
1 1 131.690961 85.860830 69.528636
1 1 131.487144 86.634431 69.528636
1 1 131.273622 87.405410 69.528636
1 1 131.050430 88.173645 69.528636
1 1 130.817601 88.939015 69.528636
1 1 130.575172 89.701398 69.528636
1 1 130.323183 90.460675 69.528636
1 1 130.061673 91.216725 69.528636
1 1 129.790682 91.969430 69.528636
1 1 129.510255 92.718670 69.528636
1 1 129.220435 93.464327 69.528636
1 1 128.921267 94.206283 69.528636
1 1 128.612800 94.944421 69.528636
1 1 128.295082 95.678625 69.528636
1 1 127.968163 96.408778 69.528636
1 1 127.632094 97.134766 69.528636
1 1 127.286929 97.856473 69.528636
1 1 126.932723 98.573786 69.528636
1 1 126.569530 99.286591 69.528636
1 1 126.197409 99.994776 69.528636
1 1 125.816419 100.698229 69.528636
1 1 125.426619 101.396839 69.528636
1 1 125.028071 102.090495 69.528636
1 1 124.620837 102.779089 69.528636
1 1 124.204984 103.462511 69.528636
1 1 123.780575 104.140653 69.528636
1 1 123.347678 104.813409 69.528636
1 1 122.906361 105.480672 69.528636
1 1 122.456694 106.142336 69.528636
1 1 121.998748 106.798298 69.528636
1 1 121.532596 107.448453 69.528636
1 1 121.058311 108.092700 69.528636
1 1 120.575967 108.730935 69.528636
1 1 120.085641 109.363059 69.528636
1 1 119.587411 109.988972 69.528636
1 1 119.081355 110.608574 69.528636
1 1 118.567553 111.221769 69.528636
1 1 118.046086 111.828458 69.528636
1 1 117.517036 112.428547 69.528636
1 1 116.980488 113.021940 69.528636
1 1 116.436525 113.608545 69.528636
1 1 115.885234 114.188267 69.528636
1 1 115.326702 114.761016 69.528636
1 1 114.761016 115.326702 69.528636
1 1 114.188267 115.885234 69.528636
1 1 113.608545 116.436525 69.528636
1 1 113.021940 116.980488 69.528636
1 1 112.428547 117.517036 69.528636
1 1 111.828458 118.046086 69.528636
1 1 111.221769 118.567553 69.528636
1 1 110.608574 119.081355 69.528636
1 1 109.988972 119.587411 69.528636
1 1 109.363059 120.085641 69.528636
1 1 108.730935 120.575967 69.528636
1 1 108.092700 121.058311 69.528636
1 1 107.448453 121.532596 69.528636
1 1 106.798298 121.998748 69.528636
1 1 106.142336 122.456694 69.528636
1 1 105.480672 122.906361 69.528636
1 1 104.813409 123.347678 69.528636
1 1 104.140653 123.780575 69.528636
1 1 103.462511 124.204984 69.528636
1 1 102.779089 124.620837 69.528636
1 1 102.090495 125.028071 69.528636
1 1 101.396839 125.426619 69.528636
1 1 100.698229 125.816419 69.528636
1 1 99.994776 126.197409 69.528636
1 1 99.286591 126.569530 69.528636
1 1 98.573786 126.932723 69.528636
1 1 97.856473 127.286929 69.528636
1 1 97.134766 127.632094 69.528636
1 1 96.408778 127.968163 69.528636
1 1 95.678625 128.295082 69.528636
1 1 94.944421 128.612800 69.528636
1 1 94.206283 128.921267 69.528636
1 1 93.464327 129.220435 69.528636
1 1 92.718670 129.510255 69.528636
1 1 91.969430 129.790682 69.528636
1 1 91.216725 130.061673 69.528636
1 1 90.460675 130.323183 69.528636
1 1 89.701398 130.575172 69.528636
1 1 88.939015 130.817601 69.528636
1 1 88.173645 131.050430 69.528636
1 1 87.405410 131.273622 69.528636
1 1 86.634431 131.487144 69.528636
1 1 85.860830 131.690961 69.528636
1 1 85.084729 131.885040 69.528636
1 1 84.306250 132.069352 69.528636
1 1 83.525516 132.243866 69.528636
1 1 82.742652 132.408556 69.528636
1 1 81.957779 132.563396 69.528636
1 1 81.171023 132.708360 69.528636
1 1 80.382507 132.843427 69.528636
1 1 79.592357 132.968575 69.528636
1 1 78.800696 133.083783 69.528636
1 1 78.007650 133.189035 69.528636
1 1 77.213344 133.284313 69.528636
1 1 76.417903 133.369601 69.528636
1 1 75.621453 133.444888 69.528636
1 1 74.824121 133.510161 69.528636
1 1 74.026031 133.565409 69.528636
1 1 73.227309 133.610623 69.528636
1 1 72.428083 133.645798 69.528636
1 1 71.628478 133.670927 69.528636
1 1 70.828620 133.686005 69.528636
1 1 70.028636 133.691032 69.528636
1 1 69.228652 133.686005 69.528636
1 1 68.428794 133.670927 69.528636
1 1 67.629188 133.645798 69.528636
1 1 66.829962 133.610623 69.528636
1 1 66.031241 133.565409 69.528636
1 1 65.233151 133.510161 69.528636
1 1 64.435818 133.444888 69.528636
1 1 63.639368 133.369601 69.528636
1 1 62.843928 133.284313 69.528636
1 1 62.049622 133.189035 69.528636
1 1 61.256576 133.083783 69.528636
1 1 60.464915 132.968575 69.528636
1 1 59.674764 132.843427 69.528636
1 1 58.886248 132.708360 69.528636
1 1 58.099492 132.563396 69.528636
1 1 57.314620 132.408556 69.528636
1 1 56.531755 132.243866 69.528636
1 1 55.751022 132.069352 69.528636
1 1 54.972543 131.885040 69.528636
1 1 54.196442 131.690961 69.528636
1 1 53.422840 131.487144 69.528636
1 1 52.651861 131.273622 69.528636
1 1 51.883627 131.050430 69.528636
1 1 51.118257 130.817601 69.528636
1 1 50.355873 130.575172 69.528636
1 1 49.596597 130.323183 69.528636
1 1 48.840546 130.061673 69.528636
1 1 48.087841 129.790682 69.528636
1 1 47.338602 129.510255 69.528636
1 1 46.592945 129.220435 69.528636
1 1 45.850989 128.921267 69.528636
1 1 45.112850 128.612800 69.528636
1 1 44.378647 128.295082 69.528636
1 1 43.648493 127.968163 69.528636
1 1 42.922506 127.632094 69.528636
1 1 42.200799 127.286929 69.528636
1 1 41.483486 126.932723 69.528636
1 1 40.770681 126.569530 69.528636
1 1 40.062496 126.197409 69.528636
1 1 39.359042 125.816419 69.528636
1 1 38.660433 125.426619 69.528636
1 1 37.966776 125.028071 69.528636
1 1 37.278182 124.620837 69.528636
1 1 36.594760 124.204984 69.528636
1 1 35.916618 123.780575 69.528636
1 1 35.243862 123.347678 69.528636
1 1 34.576600 122.906361 69.528636
1 1 33.914935 122.456694 69.528636
1 1 33.258973 121.998748 69.528636
1 1 32.608818 121.532596 69.528636
1 1 31.964572 121.058311 69.528636
1 1 31.326336 120.575967 69.528636
1 1 30.694212 120.085641 69.528636
1 1 30.068300 119.587411 69.528636
1 1 29.448697 119.081355 69.528636
1 1 28.835503 118.567553 69.528636
1 1 28.228813 118.046086 69.528636
1 1 27.628724 117.517036 69.528636
1 1 27.035331 116.980488 69.528636
1 1 26.448727 116.436525 69.528636
1 1 25.869004 115.885234 69.528636
1 1 25.296255 115.326702 69.528636
1 1 24.730570 114.761016 69.528636
1 1 24.172037 114.188267 69.528636
1 1 23.620746 113.608545 69.528636
1 1 23.076784 113.021940 69.528636
1 1 22.540235 112.428547 69.528636
1 1 22.011186 111.828458 69.528636
1 1 21.489719 111.221769 69.528636
1 1 20.975916 110.608574 69.528636
1 1 20.469860 109.988972 69.528636
1 1 19.971630 109.363059 69.528636
1 1 19.481304 108.730935 69.528636
1 1 18.998961 108.092700 69.528636
1 1 18.524675 107.448453 69.528636
1 1 18.058523 106.798298 69.528636
1 1 17.600577 106.142336 69.528636
1 1 17.150911 105.480672 69.528636
1 1 16.709594 104.813409 69.528636
1 1 16.276697 104.140653 69.528636
1 1 15.852288 103.462511 69.528636
1 1 15.436434 102.779089 69.528636
1 1 15.029201 102.090495 69.528636
1 1 14.630653 101.396839 69.528636
1 1 14.240853 100.698229 69.528636
1 1 13.859862 99.994776 69.528636
1 1 13.487741 99.286591 69.528636
1 1 13.124549 98.573786 69.528636
1 1 12.770342 97.856473 69.528636
1 1 12.425177 97.134766 69.528636
1 1 12.089109 96.408778 69.528636
1 1 11.762190 95.678625 69.528636
1 1 11.444471 94.944421 69.528636
1 1 11.136004 94.206283 69.528636
1 1 10.836837 93.464327 69.528636
1 1 10.547016 92.718670 69.528636
1 1 10.266589 91.969430 69.528636
1 1 9.995599 91.216725 69.528636
1 1 9.734088 90.460675 69.528636
1 1 9.482099 89.701398 69.528636
1 1 9.239671 88.939015 69.528636
1 1 9.006842 88.173645 69.528636
1 1 8.783649 87.405410 69.528636
1 1 8.570127 86.634431 69.528636
1 1 8.366311 85.860830 69.528636
1 1 8.172231 85.084729 69.528636
1 1 7.987920 84.306250 69.528636
1 1 7.813405 83.525516 69.528636
1 1 7.648715 82.742652 69.528636
1 1 7.493876 81.957779 69.528636
1 1 7.348911 81.171023 69.528636
1 1 7.213844 80.382507 69.528636
1 1 7.088697 79.592357 69.528636
1 1 6.973488 78.800696 69.528636
1 1 6.868237 78.007650 69.528636
1 1 6.772959 77.213344 69.528636
1 1 6.687670 76.417903 69.528636
1 1 6.612383 75.621453 69.528636
1 1 6.547111 74.824121 69.528636
1 1 6.491863 74.026031 69.528636
1 1 6.446648 73.227309 69.528636
1 1 6.411473 72.428083 69.528636
1 1 6.386345 71.628478 69.528636
1 1 6.371266 70.828620 69.528636
1 1 6.366240 70.028636 69.528636
1 1 6.371266 69.228652 69.528636
1 1 6.386345 68.428794 69.528636
1 1 6.411473 67.629188 69.528636
1 1 6.446648 66.829962 69.528636
1 1 6.491863 66.031241 69.528636
1 1 6.547111 65.233151 69.528636
1 1 6.612383 64.435818 69.528636
1 1 6.687670 63.639368 69.528636
1 1 6.772959 62.843928 69.528636
1 1 6.868237 62.049622 69.528636
1 1 6.973488 61.256576 69.528636
1 1 7.088697 60.464915 69.528636
1 1 7.213844 59.674764 69.528636
1 1 7.348911 58.886248 69.528636
1 1 7.493876 58.099492 69.528636
1 1 7.648715 57.314620 69.528636
1 1 7.813405 56.531755 69.528636
1 1 7.987920 55.751022 69.528636
1 1 8.172231 54.972543 69.528636
1 1 8.366311 54.196442 69.528636
1 1 8.570127 53.422840 69.528636
1 1 8.783649 52.651861 69.528636
1 1 9.006842 51.883627 69.528636
1 1 9.239671 51.118257 69.528636
1 1 9.482099 50.355873 69.528636
1 1 9.734088 49.596597 69.528636
1 1 9.995599 48.840546 69.528636
1 1 10.266589 48.087841 69.528636
1 1 10.547016 47.338602 69.528636
1 1 10.836837 46.592945 69.528636
1 1 11.136004 45.850989 69.528636
1 1 11.444471 45.112850 69.528636
1 1 11.762190 44.378647 69.528636
1 1 12.089109 43.648493 69.528636
1 1 12.425177 42.922506 69.528636
1 1 12.770342 42.200799 69.528636
1 1 13.124549 41.483486 69.528636
1 1 13.487741 40.770681 69.528636
1 1 13.859862 40.062496 69.528636
1 1 14.240853 39.359042 69.528636
1 1 14.630653 38.660433 69.528636
1 1 15.029201 37.966776 69.528636
1 1 15.436434 37.278182 69.528636
1 1 15.852288 36.594760 69.528636
1 1 16.276697 35.916618 69.528636
1 1 16.709594 35.243862 69.528636
1 1 17.150911 34.576600 69.528636
1 1 17.600577 33.914935 69.528636
1 1 18.058523 33.258973 69.528636
1 1 18.524675 32.608818 69.528636
1 1 18.998961 31.964572 69.528636
1 1 19.481304 31.326336 69.528636
1 1 19.971630 30.694212 69.528636
1 1 20.469860 30.068300 69.528636
1 1 20.975916 29.448697 69.528636
1 1 21.489719 28.835503 69.528636
1 1 22.011186 28.228813 69.528636
1 1 22.540235 27.628724 69.528636
1 1 23.076784 27.035331 69.528636
1 1 23.620746 26.448727 69.528636
1 1 24.172037 25.869004 69.528636
1 1 24.730570 25.296255 69.528636
1 1 25.296255 24.730570 69.528636
1 1 25.869004 24.172037 69.528636
1 1 26.448727 23.620746 69.528636
1 1 27.035331 23.076784 69.528636
1 1 27.628724 22.540235 69.528636
1 1 28.228813 22.011186 69.528636
1 1 28.835503 21.489719 69.528636
1 1 29.448697 20.975916 69.528636
1 1 30.068300 20.469860 69.528636
1 1 30.694212 19.971630 69.528636
1 1 31.326336 19.481304 69.528636
1 1 31.964572 18.998961 69.528636
1 1 32.608818 18.524675 69.528636
1 1 33.258973 18.058523 69.528636
1 1 33.914935 17.600577 69.528636
1 1 34.576600 17.150911 69.528636
1 1 35.243862 16.709594 69.528636
1 1 35.916618 16.276697 69.528636
1 1 36.594760 15.852288 69.528636
1 1 37.278182 15.436434 69.528636
1 1 37.966776 15.029201 69.528636
1 1 38.660433 14.630653 69.528636
1 1 39.359042 14.240853 69.528636
1 1 40.062496 13.859862 69.528636
1 1 40.770681 13.487741 69.528636
1 1 41.483486 13.124549 69.528636
1 1 42.200799 12.770342 69.528636
1 1 42.922506 12.425177 69.528636
1 1 43.648493 12.089109 69.528636
1 1 44.378647 11.762190 69.528636
1 1 45.112850 11.444471 69.528636
1 1 45.850989 11.136004 69.528636
1 1 46.592945 10.836837 69.528636
1 1 47.338602 10.547016 69.528636
1 1 48.087841 10.266589 69.528636
1 1 48.840546 9.995599 69.528636
1 1 49.596597 9.734088 69.528636
1 1 50.355873 9.482099 69.528636
1 1 51.118257 9.239671 69.528636
1 1 51.883627 9.006842 69.528636
1 1 52.651861 8.783649 69.528636
1 1 53.422840 8.570127 69.528636
1 1 54.196442 8.366311 69.528636
1 1 54.972543 8.172231 69.528636
1 1 55.751022 7.987920 69.528636
1 1 56.531755 7.813405 69.528636
1 1 57.314620 7.648715 69.528636
1 1 58.099492 7.493876 69.528636
1 1 58.886248 7.348911 69.528636
1 1 59.674764 7.213844 69.528636
1 1 60.464915 7.088697 69.528636
1 1 61.256576 6.973488 69.528636
1 1 62.049622 6.868237 69.528636
1 1 62.843928 6.772959 69.528636
1 1 63.639368 6.687670 69.528636
1 1 64.435818 6.612383 69.528636
1 1 65.233151 6.547111 69.528636
1 1 66.031241 6.491863 69.528636
1 1 66.829962 6.446648 69.528636
1 1 67.629188 6.411473 69.528636
1 1 68.428794 6.386345 69.528636
1 1 69.228652 6.371266 69.528636
1 1 70.028636 6.366240 69.528636
1 1 70.828620 6.371266 69.528636
1 1 71.628478 6.386345 69.528636
1 1 72.428083 6.411473 69.528636
1 1 73.227309 6.446648 69.528636
1 1 74.026031 6.491863 69.528636
1 1 74.824121 6.547111 69.528636
1 1 75.621453 6.612383 69.528636
1 1 76.417903 6.687670 69.528636
1 1 77.213344 6.772959 69.528636
1 1 78.007650 6.868237 69.528636
1 1 78.800696 6.973488 69.528636
1 1 79.592357 7.088697 69.528636
1 1 80.382507 7.213844 69.528636
1 1 81.171023 7.348911 69.528636
1 1 81.957779 7.493876 69.528636
1 1 82.742652 7.648715 69.528636
1 1 83.525516 7.813405 69.528636
1 1 84.306250 7.987920 69.528636
1 1 85.084729 8.172231 69.528636
1 1 85.860830 8.366311 69.528636
1 1 86.634431 8.570127 69.528636
1 1 87.405410 8.783649 69.528636
1 1 88.173645 9.006842 69.528636
1 1 88.939015 9.239671 69.528636
1 1 89.701398 9.482099 69.528636
1 1 90.460675 9.734088 69.528636
1 1 91.216725 9.995599 69.528636
1 1 91.969430 10.266589 69.528636
1 1 92.718670 10.547016 69.528636
1 1 93.464327 10.836837 69.528636
1 1 94.206283 11.136004 69.528636
1 1 94.944421 11.444471 69.528636
1 1 95.678625 11.762190 69.528636
1 1 96.408778 12.089109 69.528636
1 1 97.134766 12.425177 69.528636
1 1 97.856473 12.770342 69.528636
1 1 98.573786 13.124549 69.528636
1 1 99.286591 13.487741 69.528636
1 1 99.994776 13.859862 69.528636
1 1 100.698229 14.240853 69.528636
1 1 101.396839 14.630653 69.528636
1 1 102.090495 15.029201 69.528636
1 1 102.779089 15.436434 69.528636
1 1 103.462511 15.852288 69.528636
1 1 104.140653 16.276697 69.528636
1 1 104.813409 16.709594 69.528636
1 1 105.480672 17.150911 69.528636
1 1 106.142336 17.600577 69.528636
1 1 106.798298 18.058523 69.528636
1 1 107.448453 18.524675 69.528636
1 1 108.092700 18.998961 69.528636
1 1 108.730935 19.481304 69.528636
1 1 109.363059 19.971630 69.528636
1 1 109.988972 20.469860 69.528636
1 1 110.608574 20.975916 69.528636
1 1 111.221769 21.489719 69.528636
1 1 111.828458 22.011186 69.528636
1 1 112.428547 22.540235 69.528636
1 1 113.021940 23.076784 69.528636
1 1 113.608545 23.620746 69.528636
1 1 114.188267 24.172037 69.528636
1 1 114.761016 24.730570 69.528636
1 1 115.326702 25.296255 69.528636
1 1 115.885234 25.869004 69.528636
1 1 116.436525 26.448727 69.528636
1 1 116.980488 27.035331 69.528636
1 1 117.517036 27.628724 69.528636
1 1 118.046086 28.228813 69.528636
1 1 118.567553 28.835503 69.528636
1 1 119.081355 29.448697 69.528636
1 1 119.587411 30.068300 69.528636
1 1 120.085641 30.694212 69.528636
1 1 120.575967 31.326336 69.528636
1 1 121.058311 31.964572 69.528636
1 1 121.532596 32.608818 69.528636
1 1 121.998748 33.258973 69.528636
1 1 122.456694 33.914935 69.528636
1 1 122.906361 34.576600 69.528636
1 1 123.347678 35.243862 69.528636
1 1 123.780575 35.916618 69.528636
1 1 124.204984 36.594760 69.528636
1 1 124.620837 37.278182 69.528636
1 1 125.028071 37.966776 69.528636
1 1 125.426619 38.660433 69.528636
1 1 125.816419 39.359042 69.528636
1 1 126.197409 40.062496 69.528636
1 1 126.569530 40.770681 69.528636
1 1 126.932723 41.483486 69.528636
1 1 127.286929 42.200799 69.528636
1 1 127.632094 42.922506 69.528636
1 1 127.968163 43.648493 69.528636
1 1 128.295082 44.378647 69.528636
1 1 128.612800 45.112850 69.528636
1 1 128.921267 45.850989 69.528636
1 1 129.220435 46.592945 69.528636
1 1 129.510255 47.338602 69.528636
1 1 129.790682 48.087841 69.528636
1 1 130.061673 48.840546 69.528636
1 1 130.323183 49.596597 69.528636
1 1 130.575172 50.355873 69.528636
1 1 130.817601 51.118257 69.528636
1 1 131.050430 51.883627 69.528636
1 1 131.273622 52.651861 69.528636
1 1 131.487144 53.422840 69.528636
1 1 131.690961 54.196442 69.528636
1 1 131.885040 54.972543 69.528636
1 1 132.069352 55.751022 69.528636
1 1 132.243866 56.531755 69.528636
1 1 132.408556 57.314620 69.528636
1 1 132.563396 58.099492 69.528636
1 1 132.708360 58.886248 69.528636
1 1 132.843427 59.674764 69.528636
1 1 132.968575 60.464915 69.528636
1 1 133.083783 61.256576 69.528636
1 1 133.189035 62.049622 69.528636
1 1 133.284313 62.843928 69.528636
1 1 133.369601 63.639368 69.528636
1 1 133.444888 64.435818 69.528636
1 1 133.510161 65.233151 69.528636
1 1 133.565409 66.031241 69.528636
1 1 133.610623 66.829962 69.528636
1 1 133.645798 67.629188 69.528636
1 1 133.670927 68.428794 69.528636
1 1 133.686005 69.228652 69.528636
1 2 133.691032 70.028636 70.428636
1 2 133.686005 70.828620 70.428636
1 2 133.670927 71.628478 70.428636
1 2 133.645798 72.428083 70.428636
1 2 133.610623 73.227309 70.428636
1 2 133.565409 74.026031 70.428636
1 2 133.510161 74.824121 70.428636
1 2 133.444888 75.621453 70.428636
1 2 133.369601 76.417903 70.428636
1 2 133.284313 77.213344 70.428636
1 2 133.189035 78.007650 70.428636
1 2 133.083783 78.800696 70.428636
1 2 132.968575 79.592357 70.428636
1 2 132.843427 80.382507 70.428636
1 2 132.708360 81.171023 70.428636
1 2 132.563396 81.957779 70.428636
1 2 132.408556 82.742652 70.428636
1 2 132.243866 83.525516 70.428636
1 2 132.069352 84.306250 70.428636
1 2 131.885040 85.084729 70.428636
1 2 131.690961 85.860830 70.428636
1 2 131.487144 86.634431 70.428636
1 2 131.273622 87.405410 70.428636
1 2 131.050430 88.173645 70.428636
1 2 130.817601 88.939015 70.428636
1 2 130.575172 89.701398 70.428636
1 2 130.323183 90.460675 70.428636
1 2 130.061673 91.216725 70.428636
1 2 129.790682 91.969430 70.428636
1 2 129.510255 92.718670 70.428636
1 2 129.220435 93.464327 70.428636
1 2 128.921267 94.206283 70.428636
1 2 128.612800 94.944421 70.428636
1 2 128.295082 95.678625 70.428636
1 2 127.968163 96.408778 70.428636
1 2 127.632094 97.134766 70.428636
1 2 127.286929 97.856473 70.428636
1 2 126.932723 98.573786 70.428636
1 2 126.569530 99.286591 70.428636
1 2 126.197409 99.994776 70.428636
1 2 125.816419 100.698229 70.428636
1 2 125.426619 101.396839 70.428636
1 2 125.028071 102.090495 70.428636
1 2 124.620837 102.779089 70.428636
1 2 124.204984 103.462511 70.428636
1 2 123.780575 104.140653 70.428636
1 2 123.347678 104.813409 70.428636
1 2 122.906361 105.480672 70.428636
1 2 122.456694 106.142336 70.428636
1 2 121.998748 106.798298 70.428636
1 2 121.532596 107.448453 70.428636
1 2 121.058311 108.092700 70.428636
1 2 120.575967 108.730935 70.428636
1 2 120.085641 109.363059 70.428636
1 2 119.587411 109.988972 70.428636
1 2 119.081355 110.608574 70.428636
1 2 118.567553 111.221769 70.428636
1 2 118.046086 111.828458 70.428636
1 2 117.517036 112.428547 70.428636
1 2 116.980488 113.021940 70.428636
1 2 116.436525 113.608545 70.428636
1 2 115.885234 114.188267 70.428636
1 2 115.326702 114.761016 70.428636
1 2 114.761016 115.326702 70.428636
1 2 114.188267 115.885234 70.428636
1 2 113.608545 116.436525 70.428636
1 2 113.021940 116.980488 70.428636
1 2 112.428547 117.517036 70.428636
1 2 111.828458 118.046086 70.428636
1 2 111.221769 118.567553 70.428636
1 2 110.608574 119.081355 70.428636
1 2 109.988972 119.587411 70.428636
1 2 109.363059 120.085641 70.428636
1 2 108.730935 120.575967 70.428636
1 2 108.092700 121.058311 70.428636
1 2 107.448453 121.532596 70.428636
1 2 106.798298 121.998748 70.428636
1 2 106.142336 122.456694 70.428636
1 2 105.480672 122.906361 70.428636
1 2 104.813409 123.347678 70.428636
1 2 104.140653 123.780575 70.428636
1 2 103.462511 124.204984 70.428636
1 2 102.779089 124.620837 70.428636
1 2 102.090495 125.028071 70.428636
1 2 101.396839 125.426619 70.428636
1 2 100.698229 125.816419 70.428636
1 2 99.994776 126.197409 70.428636
1 2 99.286591 126.569530 70.428636
1 2 98.573786 126.932723 70.428636
1 2 97.856473 127.286929 70.428636
1 2 97.134766 127.632094 70.428636
1 2 96.408778 127.968163 70.428636
1 2 95.678625 128.295082 70.428636
1 2 94.944421 128.612800 70.428636
1 2 94.206283 128.921267 70.428636
1 2 93.464327 129.220435 70.428636
1 2 92.718670 129.510255 70.428636
1 2 91.969430 129.790682 70.428636
1 2 91.216725 130.061673 70.428636
1 2 90.460675 130.323183 70.428636
1 2 89.701398 130.575172 70.428636
1 2 88.939015 130.817601 70.428636
1 2 88.173645 131.050430 70.428636
1 2 87.405410 131.273622 70.428636
1 2 86.634431 131.487144 70.428636
1 2 85.860830 131.690961 70.428636
1 2 85.084729 131.885040 70.428636
1 2 84.306250 132.069352 70.428636
1 2 83.525516 132.243866 70.428636
1 2 82.742652 132.408556 70.428636
1 2 81.957779 132.563396 70.428636
1 2 81.171023 132.708360 70.428636
1 2 80.382507 132.843427 70.428636
1 2 79.592357 132.968575 70.428636
1 2 78.800696 133.083783 70.428636
1 2 78.007650 133.189035 70.428636
1 2 77.213344 133.284313 70.428636
1 2 76.417903 133.369601 70.428636
1 2 75.621453 133.444888 70.428636
1 2 74.824121 133.510161 70.428636
1 2 74.026031 133.565409 70.428636
1 2 73.227309 133.610623 70.428636
1 2 72.428083 133.645798 70.428636
1 2 71.628478 133.670927 70.428636
1 2 70.828620 133.686005 70.428636
1 2 70.028636 133.691032 70.428636
1 2 69.228652 133.686005 70.428636
1 2 68.428794 133.670927 70.428636
1 2 67.629188 133.645798 70.428636
1 2 66.829962 133.610623 70.428636
1 2 66.031241 133.565409 70.428636
1 2 65.233151 133.510161 70.428636
1 2 64.435818 133.444888 70.428636
1 2 63.639368 133.369601 70.428636
1 2 62.843928 133.284313 70.428636
1 2 62.049622 133.189035 70.428636
1 2 61.256576 133.083783 70.428636
1 2 60.464915 132.968575 70.428636
1 2 59.674764 132.843427 70.428636
1 2 58.886248 132.708360 70.428636
1 2 58.099492 132.563396 70.428636
1 2 57.314620 132.408556 70.428636
1 2 56.531755 132.243866 70.428636
1 2 55.751022 132.069352 70.428636
1 2 54.972543 131.885040 70.428636
1 2 54.196442 131.690961 70.428636
1 2 53.422840 131.487144 70.428636
1 2 52.651861 131.273622 70.428636
1 2 51.883627 131.050430 70.428636
1 2 51.118257 130.817601 70.428636
1 2 50.355873 130.575172 70.428636
1 2 49.596597 130.323183 70.428636
1 2 48.840546 130.061673 70.428636
1 2 48.087841 129.790682 70.428636
1 2 47.338602 129.510255 70.428636
1 2 46.592945 129.220435 70.428636
1 2 45.850989 128.921267 70.428636
1 2 45.112850 128.612800 70.428636
1 2 44.378647 128.295082 70.428636
1 2 43.648493 127.968163 70.428636
1 2 42.922506 127.632094 70.428636
1 2 42.200799 127.286929 70.428636
1 2 41.483486 126.932723 70.428636
1 2 40.770681 126.569530 70.428636
1 2 40.062496 126.197409 70.428636
1 2 39.359042 125.816419 70.428636
1 2 38.660433 125.426619 70.428636
1 2 37.966776 125.028071 70.428636
1 2 37.278182 124.620837 70.428636
1 2 36.594760 124.204984 70.428636
1 2 35.916618 123.780575 70.428636
1 2 35.243862 123.347678 70.428636
1 2 34.576600 122.906361 70.428636
1 2 33.914935 122.456694 70.428636
1 2 33.258973 121.998748 70.428636
1 2 32.608818 121.532596 70.428636
1 2 31.964572 121.058311 70.428636
1 2 31.326336 120.575967 70.428636
1 2 30.694212 120.085641 70.428636
1 2 30.068300 119.587411 70.428636
1 2 29.448697 119.081355 70.428636
1 2 28.835503 118.567553 70.428636
1 2 28.228813 118.046086 70.428636
1 2 27.628724 117.517036 70.428636
1 2 27.035331 116.980488 70.428636
1 2 26.448727 116.436525 70.428636
1 2 25.869004 115.885234 70.428636
1 2 25.296255 115.326702 70.428636
1 2 24.730570 114.761016 70.428636
1 2 24.172037 114.188267 70.428636
1 2 23.620746 113.608545 70.428636
1 2 23.076784 113.021940 70.428636
1 2 22.540235 112.428547 70.428636
1 2 22.011186 111.828458 70.428636
1 2 21.489719 111.221769 70.428636
1 2 20.975916 110.608574 70.428636
1 2 20.469860 109.988972 70.428636
1 2 19.971630 109.363059 70.428636
1 2 19.481304 108.730935 70.428636
1 2 18.998961 108.092700 70.428636
1 2 18.524675 107.448453 70.428636
1 2 18.058523 106.798298 70.428636
1 2 17.600577 106.142336 70.428636
1 2 17.150911 105.480672 70.428636
1 2 16.709594 104.813409 70.428636
1 2 16.276697 104.140653 70.428636
1 2 15.852288 103.462511 70.428636
1 2 15.436434 102.779089 70.428636
1 2 15.029201 102.090495 70.428636
1 2 14.630653 101.396839 70.428636
1 2 14.240853 100.698229 70.428636
1 2 13.859862 99.994776 70.428636
1 2 13.487741 99.286591 70.428636
1 2 13.124549 98.573786 70.428636
1 2 12.770342 97.856473 70.428636
1 2 12.425177 97.134766 70.428636
1 2 12.089109 96.408778 70.428636
1 2 11.762190 95.678625 70.428636
1 2 11.444471 94.944421 70.428636
1 2 11.136004 94.206283 70.428636
1 2 10.836837 93.464327 70.428636
1 2 10.547016 92.718670 70.428636
1 2 10.266589 91.969430 70.428636
1 2 9.995599 91.216725 70.428636
1 2 9.734088 90.460675 70.428636
1 2 9.482099 89.701398 70.428636
1 2 9.239671 88.939015 70.428636
1 2 9.006842 88.173645 70.428636
1 2 8.783649 87.405410 70.428636
1 2 8.570127 86.634431 70.428636
1 2 8.366311 85.860830 70.428636
1 2 8.172231 85.084729 70.428636
1 2 7.987920 84.306250 70.428636
1 2 7.813405 83.525516 70.428636
1 2 7.648715 82.742652 70.428636
1 2 7.493876 81.957779 70.428636
1 2 7.348911 81.171023 70.428636
1 2 7.213844 80.382507 70.428636
1 2 7.088697 79.592357 70.428636
1 2 6.973488 78.800696 70.428636
1 2 6.868237 78.007650 70.428636
1 2 6.772959 77.213344 70.428636
1 2 6.687670 76.417903 70.428636
1 2 6.612383 75.621453 70.428636
1 2 6.547111 74.824121 70.428636
1 2 6.491863 74.026031 70.428636
1 2 6.446648 73.227309 70.428636
1 2 6.411473 72.428083 70.428636
1 2 6.386345 71.628478 70.428636
1 2 6.371266 70.828620 70.428636
1 2 6.366240 70.028636 70.428636
1 2 6.371266 69.228652 70.428636
1 2 6.386345 68.428794 70.428636
1 2 6.411473 67.629188 70.428636
1 2 6.446648 66.829962 70.428636
1 2 6.491863 66.031241 70.428636
1 2 6.547111 65.233151 70.428636
1 2 6.612383 64.435818 70.428636
1 2 6.687670 63.639368 70.428636
1 2 6.772959 62.843928 70.428636
1 2 6.868237 62.049622 70.428636
1 2 6.973488 61.256576 70.428636
1 2 7.088697 60.464915 70.428636
1 2 7.213844 59.674764 70.428636
1 2 7.348911 58.886248 70.428636
1 2 7.493876 58.099492 70.428636
1 2 7.648715 57.314620 70.428636
1 2 7.813405 56.531755 70.428636
1 2 7.987920 55.751022 70.428636
1 2 8.172231 54.972543 70.428636
1 2 8.366311 54.196442 70.428636
1 2 8.570127 53.422840 70.428636
1 2 8.783649 52.651861 70.428636
1 2 9.006842 51.883627 70.428636
1 2 9.239671 51.118257 70.428636
1 2 9.482099 50.355873 70.428636
1 2 9.734088 49.596597 70.428636
1 2 9.995599 48.840546 70.428636
1 2 10.266589 48.087841 70.428636
1 2 10.547016 47.338602 70.428636
1 2 10.836837 46.592945 70.428636
1 2 11.136004 45.850989 70.428636
1 2 11.444471 45.112850 70.428636
1 2 11.762190 44.378647 70.428636
1 2 12.089109 43.648493 70.428636
1 2 12.425177 42.922506 70.428636
1 2 12.770342 42.200799 70.428636
1 2 13.124549 41.483486 70.428636
1 2 13.487741 40.770681 70.428636
1 2 13.859862 40.062496 70.428636
1 2 14.240853 39.359042 70.428636
1 2 14.630653 38.660433 70.428636
1 2 15.029201 37.966776 70.428636
1 2 15.436434 37.278182 70.428636
1 2 15.852288 36.594760 70.428636
1 2 16.276697 35.916618 70.428636
1 2 16.709594 35.243862 70.428636
1 2 17.150911 34.576600 70.428636
1 2 17.600577 33.914935 70.428636
1 2 18.058523 33.258973 70.428636
1 2 18.524675 32.608818 70.428636
1 2 18.998961 31.964572 70.428636
1 2 19.481304 31.326336 70.428636
1 2 19.971630 30.694212 70.428636
1 2 20.469860 30.068300 70.428636
1 2 20.975916 29.448697 70.428636
1 2 21.489719 28.835503 70.428636
1 2 22.011186 28.228813 70.428636
1 2 22.540235 27.628724 70.428636
1 2 23.076784 27.035331 70.428636
1 2 23.620746 26.448727 70.428636
1 2 24.172037 25.869004 70.428636
1 2 24.730570 25.296255 70.428636
1 2 25.296255 24.730570 70.428636
1 2 25.869004 24.172037 70.428636
1 2 26.448727 23.620746 70.428636
1 2 27.035331 23.076784 70.428636
1 2 27.628724 22.540235 70.428636
1 2 28.228813 22.011186 70.428636
1 2 28.835503 21.489719 70.428636
1 2 29.448697 20.975916 70.428636
1 2 30.068300 20.469860 70.428636
1 2 30.694212 19.971630 70.428636
1 2 31.326336 19.481304 70.428636
1 2 31.964572 18.998961 70.428636
1 2 32.608818 18.524675 70.428636
1 2 33.258973 18.058523 70.428636
1 2 33.914935 17.600577 70.428636
1 2 34.576600 17.150911 70.428636
1 2 35.243862 16.709594 70.428636
1 2 35.916618 16.276697 70.428636
1 2 36.594760 15.852288 70.428636
1 2 37.278182 15.436434 70.428636
1 2 37.966776 15.029201 70.428636
1 2 38.660433 14.630653 70.428636
1 2 39.359042 14.240853 70.428636
1 2 40.062496 13.859862 70.428636
1 2 40.770681 13.487741 70.428636
1 2 41.483486 13.124549 70.428636
1 2 42.200799 12.770342 70.428636
1 2 42.922506 12.425177 70.428636
1 2 43.648493 12.089109 70.428636
1 2 44.378647 11.762190 70.428636
1 2 45.112850 11.444471 70.428636
1 2 45.850989 11.136004 70.428636
1 2 46.592945 10.836837 70.428636
1 2 47.338602 10.547016 70.428636
1 2 48.087841 10.266589 70.428636
1 2 48.840546 9.995599 70.428636
1 2 49.596597 9.734088 70.428636
1 2 50.355873 9.482099 70.428636
1 2 51.118257 9.239671 70.428636
1 2 51.883627 9.006842 70.428636
1 2 52.651861 8.783649 70.428636
1 2 53.422840 8.570127 70.428636
1 2 54.196442 8.366311 70.428636
1 2 54.972543 8.172231 70.428636
1 2 55.751022 7.987920 70.428636
1 2 56.531755 7.813405 70.428636
1 2 57.314620 7.648715 70.428636
1 2 58.099492 7.493876 70.428636
1 2 58.886248 7.348911 70.428636
1 2 59.674764 7.213844 70.428636