LAMMPS data file via write_data, version 2 Aug 2023, timestep = 30000000, units = lj

8750 atoms
3 atom types
1000 bonds
1 bond types
6750 ellipsoids

0 123.237575 xlo xhi
0 82.158384 ylo yhi
0 82.158384 zlo zhi

Masses

1 1
2 1
3 0.1

Bond Coeffs # harmonic

1 100 1.4

Atoms # hybrid

5754 2 60.81150824372726 35.78006007042057 19.587784636160862 1 1.909859 2001 0 0 0
4513 2 61.3841577140079 36.53388110543993 19.453594480125346 1 1.909859 2001 0 0 0
8289 2 61.59083728377485 37.435868888386615 19.397819384869674 1 1.909859 2001 0 0 0
6134 2 59.781979281480204 39.001831711221655 19.57473783508935 1 1.909859 2001 0 0 0
4689 2 59.88937472057244 38.11442238165529 19.534215594275622 1 1.909859 2001 0 0 0
4596 2 60.68521657632635 39.21143317537513 19.376680389886136 1 1.909859 2001 0 0 0
8272 2 60.73904251753666 37.579108221700935 19.39731661345969 1 1.909859 2001 0 0 0
4991 2 60.97119674958976 38.32800219724049 19.37146525646231 1 1.909859 2001 0 0 0
6746 2 59.61830141291563 40.14780748751987 19.605760268336795 1 1.909859 2001 0 0 0
8014 2 60.355800604837405 40.10808822471823 19.1882727251765 1 1.909859 2001 0 0 0
6240 2 61.25146093429364 40.35347019740776 19.410989433755397 1 1.909859 2001 0 0 0
2021 2 60.41166020142072 41.00773635750137 19.332403476245204 1 1.909859 2001 0 0 0
8652 2 57.43022956230539 31.9646098668643 21.113517469084258 1 1.909859 2001 0 0 0
6192 2 58.4304603733803 31.578736049477207 21.158971609794463 1 1.909859 2001 0 0 0
8077 2 59.42121995108204 31.65821503783299 21.15005864818567 1 1.909859 2001 0 0 0
5207 2 61.1204728047846 31.37909198062691 21.22962798469163 1 1.909859 2001 0 0 0
6493 2 60.18011833978114 31.193275990750433 21.28390663656321 1 1.909859 2001 0 0 0
2759 2 56.065444856827575 33.4725323811659 21.093846268257014 1 1.909859 2001 0 0 0
5696 2 54.963090385088464 33.60804604890774 21.343679573119125 1 1.909859 2001 0 0 0
8226 2 57.29933834036923 33.39158143811875 20.643865903456287 1 1.909859 2001 0 0 0
2087 2 57.86834398306196 32.704767057024945 20.96215966925374 1 1.909859 2001 0 0 0
4385 2 56.822560416659186 32.735420303228246 21.131356929982665 1 1.909859 2001 0 0 0
2342 2 56.66760917230096 33.859769153421304 20.687102695941437 1 1.909859 2001 0 0 0
7218 2 59.162316547780975 32.394812654452174 20.726577689260143 1 1.909859 2001 0 0 0
8724 2 58.49955307324612 33.01617387628586 20.471683683244255 1 1.909859 2001 0 0 0
6156 2 58.87762831664768 33.85786950099078 20.2525421671318 1 1.909859 2001 0 0 0
2880 2 59.453414676655 33.327387235210125 19.90153241906517 1 1.909859 2001 0 0 0
4352 2 60.342259663653394 33.761849871708655 20.015342011484346 1 1.909859 2001 0 0 0
4005 2 59.979605460538096 32.61115408356567 20.49035029811217 1 1.909859 2001 0 0 0
7016 2 60.79962882970724 33.07679432449328 20.415683337858592 1 1.909859 2001 0 0 0
6605 2 60.54239300877434 32.19468413260928 20.95415399117572 1 1.909859 2001 0 0 0
7475 2 61.41994361792347 33.85030106118828 20.165250384101384 1 1.909859 2001 0 0 0
6849 2 54.27334957547097 35.52093664169425 21.28786431660249 1 1.909859 2001 0 0 0
4366 2 55.586614616692565 34.16748106872035 21.148900900069297 1 1.909859 2001 0 0 0
7233 2 55.06951451539476 35.688545017648266 21.182927383888476 1 1.909859 2001 0 0 0
4331 2 56.14523938031991 34.809146874882614 20.694286874046288 1 1.909859 2001 0 0 0
2541 2 55.309979425711944 34.9912637440084 20.93567029797942 1 1.909859 2001 0 0 0
8368 2 56.31779590126963 35.67125372286203 20.663842972968204 1 1.909859 2001 0 0 0
2709 2 54.635234600347516 34.645724729195784 21.328050519488798 1 1.909859 2001 0 0 0
7919 2 57.85971175787157 33.94334769835882 20.096632921620643 1 1.909859 2001 0 0 0
6476 2 56.960262061353234 34.74705651305547 20.37554942236376 1 1.909859 2001 0 0 0
8111 2 57.98804483238801 34.80047775320504 20.16387142914407 1 1.909859 2001 0 0 0
2278 2 57.29885322736747 35.52623695039446 20.464692273483966 1 1.909859 2001 0 0 0
7957 2 58.25104689366439 35.58826093987005 20.24783734922342 1 1.909859 2001 0 0 0
7803 2 59.03957797931856 34.8197413392424 19.790382388200012 1 1.909859 2001 0 0 0
5685 2 59.7048639885116 34.280308016901515 20.035872692441774 1 1.909859 2001 0 0 0
3292 2 60.61944865654928 34.5576294581413 19.854325246868893 1 1.909859 2001 0 0 0
7165 2 60.05008280569733 35.12403439900802 19.83235470503695 1 1.909859 2001 0 0 0
5146 2 61.51341534968478 34.84118911615249 19.697642769898188 1 1.909859 2001 0 0 0
7905 2 54.216078492682634 37.2919505756674 21.371932121609042 1 1.909859 2001 0 0 0
4009 2 54.15617984745245 36.4615553145755 21.266280680357973 1 1.909859 2001 0 0 0
8414 2 54.860183160913145 36.675178647924405 20.92560258566647 1 1.909859 2001 0 0 0
5894 2 55.701818924257246 36.897309288256935 20.506253645004083 1 1.909859 2001 0 0 0
8018 2 55.542815018442354 36.11117919599776 20.581242758795252 1 1.909859 2001 0 0 0
4946 2 55.19953783594084 37.436911510456916 20.86453611053467 1 1.909859 2001 0 0 0
4576 2 57.9608065930109 37.34837386523135 19.992963641467874 1 1.909859 2001 0 0 0
4561 2 56.66292370128318 36.63261954011697 20.58909645229908 1 1.909859 2001 0 0 0
8634 2 57.5598651386997 36.45406362938538 20.250991265246853 1 1.909859 2001 0 0 0
4299 2 59.380967116966154 36.670892434302736 19.749314299518904 1 1.909859 2001 0 0 0
6068 2 58.47146726799673 36.46183172020107 20.02500245150356 1 1.909859 2001 0 0 0
8719 2 58.86909414925383 37.262860071504946 19.881299310168725 1 1.909859 2001 0 0 0
6867 2 59.11180879297745 35.751262424504056 19.942436232073344 1 1.909859 2001 0 0 0
7922 2 59.861845393035246 35.95975645842852 19.66380075964745 1 1.909859 2001 0 0 0
3761 2 59.86869170571347 37.31902223476818 19.87313987160007 1 1.909859 2001 0 0 0
4714 2 60.541314356840125 36.69706623063433 19.698714729988637 1 1.909859 2001 0 0 0
3063 2 56.28112808948217 37.61123696959109 20.50250978528861 1 1.909859 2001 0 0 0
8211 2 54.59609441724483 38.00416477985962 21.23549159482475 1 1.909859 2001 0 0 0
6387 2 55.02601689088681 38.831971476147494 21.159608211695 1 1.909859 2001 0 0 0
3723 2 55.65887298256416 38.35596839539484 20.864702327679073 1 1.909859 2001 0 0 0
6045 2 55.96397790144387 39.23499732245416 20.839406032044618 1 1.909859 2001 0 0 0
7109 2 57.09737763320151 37.5583304562544 20.329677765653454 1 1.909859 2001 0 0 0
6889 2 58.013494074883674 38.23023525420878 20.018853562010513 1 1.909859 2001 0 0 0
3475 2 56.473742350429085 38.65184947563102 20.516506478676625 1 1.909859 2001 0 0 0
2913 2 57.350481699696566 38.68277778372121 20.29526281084449 1 1.909859 2001 0 0 0
2166 2 58.15143951868351 39.175331701008545 19.999201760137883 1 1.909859 2001 0 0 0
7059 2 58.959128245382196 38.342569264610695 19.880886475635815 1 1.909859 2001 0 0 0
2156 2 59.071573961223216 39.190777911816525 19.97958243945232 1 1.909859 2001 0 0 0
5039 2 54.304542552582916 39.30359663477245 21.22368935507133 1 1.909859 2001 0 0 0
8580 2 53.43883457293152 39.563141323593065 21.372151686708143 1 1.909859 2001 0 0 0
2835 2 54.06069045746635 40.27993970655353 21.093768536294675 1 1.909859 2001 0 0 0
3045 2 55.176572177231876 39.866419565448695 21.0798398609621 1 1.909859 2001 0 0 0
3477 2 54.82675591669931 40.81269418871232 21.234942600194127 1 1.909859 2001 0 0 0
2433 2 56.152207937645564 40.17147520553602 20.769066206325423 1 1.909859 2001 0 0 0
4659 2 55.57164296099492 40.94005822077615 21.06300692170708 1 1.909859 2001 0 0 0
3808 2 56.972866605089294 39.68033238706889 20.344576985842373 1 1.909859 2001 0 0 0
7197 2 57.65366380576656 40.199308261641775 20.123940969594933 1 1.909859 2001 0 0 0
6225 2 56.776402069522035 40.89021582422739 20.359776847548247 1 1.909859 2001 0 0 0
3152 2 57.71788767137509 41.06703236379799 19.781879822458116 1 1.909859 2001 0 0 0
3431 2 58.453563536205465 40.89052836451666 19.703715455038825 1 1.909859 2001 0 0 0
2565 2 58.46253753428566 39.932783895094495 20.019707637637033 1 1.909859 2001 0 0 0
4574 2 55.651832146126 29.649147104790348 23.155067549059474 1 1.909859 2001 0 0 0
5748 2 56.537448067796305 30.149340314677882 22.672966197687465 1 1.909859 2001 0 0 0
5933 2 57.559869386352645 30.001369691237095 22.35892672877525 1 1.909859 2001 0 0 0
5045 2 56.80996131037734 29.17103771665936 23.015718680655414 1 1.909859 2001 0 0 0
7386 2 57.6942287528301 29.31760520794444 22.80410896263428 1 1.909859 2001 0 0 0
8655 2 58.530683678919154 29.130411993041886 22.584692859398213 1 1.909859 2001 0 0 0
5937 2 58.570947997063115 29.80523444544508 22.093541025480455 1 1.909859 2001 0 0 0
7578 2 59.40129189640667 29.923364125197224 21.85097920841484 1 1.909859 2001 0 0 0
4809 2 59.401453426305444 29.221962710539753 22.50802173706926 1 1.909859 2001 0 0 0
2445 2 59.3870129168603 28.61854533860271 23.05800615549108 1 1.909859 2001 0 0 0
4896 2 60.2404216750311 28.89905283185815 22.70124941266227 1 1.909859 2001 0 0 0
2141 2 60.357245629628416 29.67278294569499 22.168581193039092 1 1.909859 2001 0 0 0
8514 2 61.00303438595893 29.00413382772501 22.72153586770212 1 1.909859 2001 0 0 0
5951 2 61.36940105328561 29.991600911562614 22.087690661211507 1 1.909859 2001 0 0 0
3235 2 53.92573052857282 31.5860237123753 22.584416576979294 1 1.909859 2001 0 0 0
4534 2 53.14976031622246 31.732664873001998 22.89285430188098 1 1.909859 2001 0 0 0
7801 2 53.407703801931966 31.050539885031725 23.2028735205829 1 1.909859 2001 0 0 0
5279 2 54.27766575119462 30.869126450798575 22.673818122994625 1 1.909859 2001 0 0 0
7648 2 55.11226927502022 31.277462579517437 22.280918775921787 1 1.909859 2001 0 0 0
7385 2 55.097925652664976 30.436168918707356 22.758665322842038 1 1.909859 2001 0 0 0
7423 2 55.54956055611373 31.86122804601129 21.957001509309002 1 1.909859 2001 0 0 0
5509 2 56.267204693538766 31.368182399345915 22.06448342124298 1 1.909859 2001 0 0 0
5335 2 54.5860892266021 32.046245847821005 22.114584653277216 1 1.909859 2001 0 0 0
3844 2 55.88812463367028 30.73983793041153 22.600711886537255 1 1.909859 2001 0 0 0
6008 2 56.92852328778117 30.71004543574953 22.129848217147124 1 1.909859 2001 0 0 0
6062 2 57.30894970351558 31.21690666758978 21.566697070906272 1 1.909859 2001 0 0 0
6517 2 58.16354972043022 30.600296254732168 21.729296066707878 1 1.909859 2001 0 0 0
5466 2 59.2450613346234 30.768253642060603 21.5027359468863 1 1.909859 2001 0 0 0
4858 2 60.0944135479629 30.364263280803133 21.784172790242895 1 1.909859 2001 0 0 0
2232 2 60.79039550062734 30.567104906055555 21.680618213957477 1 1.909859 2001 0 0 0
8011 2 52.06486556266031 33.26854022443939 22.894613508035764 1 1.909859 2001 0 0 0
2547 2 52.692905270306646 33.467942505214396 22.282638418372418 1 1.909859 2001 0 0 0
4508 2 52.20123360529479 32.299381001372296 23.121019928712514 1 1.909859 2001 0 0 0
4464 2 53.83577601404856 32.579228590808434 22.238428662992522 1 1.909859 2001 0 0 0
3815 2 52.99989922327798 32.59515090169979 22.603558246900693 1 1.909859 2001 0 0 0
5283 2 54.554140761079815 32.72648242319997 21.633106495014005 1 1.909859 2001 0 0 0
3886 2 53.610123019592336 33.372353568845995 21.895427755917616 1 1.909859 2001 0 0 0
6972 2 56.20663204899005 32.32206998806063 21.52787994869859 1 1.909859 2001 0 0 0
5934 2 55.54950100019876 32.863231652838266 21.4515039768367 1 1.909859 2001 0 0 0
2567 2 51.02034244830375 34.97544813585187 22.975457887043923 1 1.909859 2001 0 0 0
3242 2 52.327880260415135 34.431960512403215 22.18127532081905 1 1.909859 2001 0 0 0
8515 2 52.56712885417884 35.50822259361514 21.895093689076727 1 1.909859 2001 0 0 0
3779 2 51.69879961470789 35.46158720828988 22.374972699092368 1 1.909859 2001 0 0 0
7793 2 51.65522139176447 34.14269303826799 22.832803121774152 1 1.909859 2001 0 0 0
4293 2 53.47508738086174 35.0965329396359 21.692237299099187 1 1.909859 2001 0 0 0
4733 2 54.01212506273361 34.144425114944006 21.55128035844665 1 1.909859 2001 0 0 0
7777 2 53.04124478318889 34.3947155479082 21.80927325033667 1 1.909859 2001 0 0 0
3437 2 50.846011596432575 37.36407148921346 22.81761804822028 1 1.909859 2001 0 0 0
4975 2 51.09166415548497 36.30918346444087 22.826464921828812 1 1.909859 2001 0 0 0
5839 2 52.56227202252074 36.903669866700724 21.880689038548898 1 1.909859 2001 0 0 0
5162 2 52.001058254980094 36.43948611217439 22.276529481995354 1 1.909859 2001 0 0 0
6388 2 51.559401021412526 37.209263995517404 22.38628391653155 1 1.909859 2001 0 0 0
7806 2 53.43904082929864 36.667958900111834 21.78231547687791 1 1.909859 2001 0 0 0
4235 2 53.184506532593446 35.9350746168679 21.654708697960626 1 1.909859 2001 0 0 0
2831 2 50.41157212683516 38.25197266361008 22.945567639810093 1 1.909859 2001 0 0 0
8020 2 50.982753353897095 38.663994073101584 22.448181607599388 1 1.909859 2001 0 0 0
3664 2 49.91854037779029 39.056173485493225 23.19900470331465 1 1.909859 2001 0 0 0
6667 2 51.94773623191587 38.70418775999114 22.15745915231998 1 1.909859 2001 0 0 0
4501 2 51.59822895740383 38.01963543922601 22.387607730448227 1 1.909859 2001 0 0 0
3001 2 52.3392354426394 37.786192756831106 22.005985165469074 1 1.909859 2001 0 0 0
7231 2 53.923186221697605 38.568659367673234 21.462347110152912 1 1.909859 2001 0 0 0
2174 2 53.19464157552923 37.75500762162136 21.71152177569625 1 1.909859 2001 0 0 0
8039 2 52.95877205226518 38.59720179167022 21.79088969013928 1 1.909859 2001 0 0 0
7853 2 50.401621015961844 40.835763703366226 22.962346254549693 1 1.909859 2001 0 0 0
5445 2 50.87989175607905 40.21670897634476 22.46039495053352 1 1.909859 2001 0 0 0
8362 2 50.68128461614759 39.379246809995394 22.78084794151123 1 1.909859 2001 0 0 0
8502 2 51.479702066238865 39.55318556532723 22.344790537562403 1 1.909859 2001 0 0 0
7595 2 52.441396215364634 39.59260697451953 21.81657797460169 1 1.909859 2001 0 0 0
5965 2 51.786500243527875 40.28065484592855 21.93718886399836 1 1.909859 2001 0 0 0
7238 2 52.31804169782572 40.84305976446364 21.89791074540289 1 1.909859 2001 0 0 0
4960 2 51.26740380206974 40.98071788854368 22.283595440359083 1 1.909859 2001 0 0 0
5252 2 52.96963096830598 40.278568749908054 21.687222257568088 1 1.909859 2001 0 0 0
4738 2 58.02621824078747 26.595718095403686 24.58496224704409 1 1.909859 2001 0 0 0
5866 2 59.84788385527503 26.767831357235984 24.418587810422583 1 1.909859 2001 0 0 0
4716 2 59.44817396011426 26.040577720949482 24.96434720585725 1 1.909859 2001 0 0 0
8492 2 60.648633526317354 26.365324472190242 24.67996333292879 1 1.909859 2001 0 0 0
3465 2 54.319664157144715 28.369085394765072 24.807457427892874 1 1.909859 2001 0 0 0
2736 2 55.86301891379946 27.932185897457888 24.292918484522527 1 1.909859 2001 0 0 0
7861 2 55.06962141174868 28.256308647694453 24.458214057751558 1 1.909859 2001 0 0 0
6950 2 58.09577062989488 27.951379835653245 23.605539873130784 1 1.909859 2001 0 0 0
6899 2 57.275030596462685 26.987873903234473 24.71920590048559 1 1.909859 2001 0 0 0
8626 2 56.53987502381152 27.599074918213812 24.511544169553456 1 1.909859 2001 0 0 0
8156 2 56.94548338332623 28.23370365418731 23.896941445468183 1 1.909859 2001 0 0 0
4626 2 57.468219125046076 28.520447035056232 23.327579090186912 1 1.909859 2001 0 0 0
7764 2 57.62030983901561 27.37436843527803 24.125054399607368 1 1.909859 2001 0 0 0
6575 2 58.46759223374515 28.547065605306514 23.244816780707755 1 1.909859 2001 0 0 0
4195 2 58.778782922515425 27.2239051079425 24.20756100475725 1 1.909859 2001 0 0 0
2168 2 59.05500729203441 27.87217538158638 23.44960526467681 1 1.909859 2001 0 0 0
5599 2 59.64668974451583 27.32586642869644 23.89725877604714 1 1.909859 2001 0 0 0
4909 2 61.537859578277306 27.459993761179486 23.74543549501792 1 1.909859 2001 0 0 0
5051 2 60.993682909667704 28.303921075135342 23.29080159698683 1 1.909859 2001 0 0 0
3890 2 60.63410338490634 27.39700256784036 23.771689198014453 1 1.909859 2001 0 0 0
6924 2 60.180859163086566 28.0301470213518 23.549958813115147 1 1.909859 2001 0 0 0
6212 2 61.18050561360655 26.89518339645025 24.288337450939466 1 1.909859 2001 0 0 0
3219 2 51.804854796390856 30.232522494614912 24.644825322858544 1 1.909859 2001 0 0 0
6247 2 52.399408499338 29.46519021987018 24.905142073694304 1 1.909859 2001 0 0 0
2163 2 52.680821669121535 30.027210288615933 24.151906273348107 1 1.909859 2001 0 0 0
5788 2 53.09649240354085 29.35825120409785 24.422102730533055 1 1.909859 2001 0 0 0
7785 2 53.94708944022675 28.93623421159361 24.332551787734737 1 1.909859 2001 0 0 0
5377 2 53.76748156098256 29.712246223614052 23.88547008981884 1 1.909859 2001 0 0 0
4405 2 53.14827982734633 30.360506988509748 23.616781482039276 1 1.909859 2001 0 0 0
4611 2 54.76815632395814 29.90479922943973 23.290058479285076 1 1.909859 2001 0 0 0
6195 2 56.2033420460685 28.697349270335703 23.598262318030073 1 1.909859 2001 0 0 0
5709 2 55.32423107099152 29.065012300273075 23.722715039237524 1 1.909859 2001 0 0 0
4126 2 54.6405075112601 29.156355758445446 24.099893779812216 1 1.909859 2001 0 0 0
4998 2 50.50830690506064 31.388058771568947 24.776492861456237 1 1.909859 2001 0 0 0
7359 2 50.74697457065946 32.091713021160366 24.176565992177476 1 1.909859 2001 0 0 0
3687 2 50.87962186231732 30.422977603601378 24.890627777597683 1 1.909859 2001 0 0 0
6743 2 52.58210721062701 31.54910330089301 23.422731191969213 1 1.909859 2001 0 0 0
4570 2 52.20817281426867 30.979152530757435 23.878800012837466 1 1.909859 2001 0 0 0
6094 2 51.39802884997386 31.187030048424695 24.43898762738703 1 1.909859 2001 0 0 0
6955 2 51.45919223818764 31.82154239713285 23.70794326081043 1 1.909859 2001 0 0 0
2242 2 54.10670549601115 30.38648619346452 23.289306811072596 1 1.909859 2001 0 0 0
7817 2 49.043312233039146 33.70322492373582 24.8621095609781 1 1.909859 2001 0 0 0
2620 2 50.00839978898455 32.258732070983854 24.624090270869026 1 1.909859 2001 0 0 0
2946 2 49.57435226969648 33.16937569519055 24.475803879374382 1 1.909859 2001 0 0 0
3149 2 50.425983103633904 33.122385246934236 24.082310017455622 1 1.909859 2001 0 0 0
3681 2 50.998748467578814 33.781443479631484 23.456209332609326 1 1.909859 2001 0 0 0
6510 2 51.29592243786754 32.841350667165685 23.416620266828218 1 1.909859 2001 0 0 0
134 1 56.03970539768083 32.819233217253355 24.356811769577167 0 1.909859 134 0 0 0
1134 3 56.039705404081666 32.81923321242401 24.35681177441417 0 1.909859 134 0 0 0
1137 3 59.045826752585 32.95132540781771 24.95273634932227 0 1.909859 137 0 0 0
137 1 59.04582675154201 32.951325397119234 24.952736352432627 0 1.909859 137 0 0 0
8094 2 49.24020902519497 35.11986073850049 24.40649458526188 1 1.909859 2001 0 0 0
8696 2 48.86547261206587 34.51879886799815 24.807101569677485 1 1.909859 2001 0 0 0
8435 2 48.288708532479795 35.168733373812465 24.927667829076704 1 1.909859 2001 0 0 0
2279 2 49.57303606189968 34.08489058699462 24.177883532449933 1 1.909859 2001 0 0 0
4605 2 50.4834697564435 34.39437672762372 23.524276701166418 1 1.909859 2001 0 0 0
4840 2 49.91515143262972 35.13834742458254 23.695936190904998 1 1.909859 2001 0 0 0
7209 2 49.0283008846084 36.82408233768807 24.203547985071072 1 1.909859 2001 0 0 0
3185 2 49.068827740316586 35.90434343608839 24.230708919495836 1 1.909859 2001 0 0 0
3440 2 48.34313102856297 37.26449097814694 24.671035097788824 1 1.909859 2001 0 0 0
8165 2 48.44427400212933 36.22288635429918 24.669613167176994 1 1.909859 2001 0 0 0
5985 2 50.20904804836431 36.67001216901171 23.30332562591618 1 1.909859 2001 0 0 0
6931 2 49.59610432404485 36.17947243315194 23.682437477000526 1 1.909859 2001 0 0 0
5538 2 50.501446647100934 35.805796624436894 23.30690181344262 1 1.909859 2001 0 0 0
8282 2 49.77878708158931 37.48345030190111 23.409418379772955 1 1.909859 2001 0 0 0
4978 2 49.067160216726705 37.719271306247286 24.007229353597044 1 1.909859 2001 0 0 0
2320 2 48.54437921970812 38.09700386084394 24.563407297087817 1 1.909859 2001 0 0 0
2950 2 48.83524017414454 38.84639306271418 23.929277482799943 1 1.909859 2001 0 0 0
4695 2 48.214276650846514 38.99851201507544 24.67656177621564 1 1.909859 2001 0 0 0
2245 2 49.55256666460909 38.419203219982904 23.610941912045778 1 1.909859 2001 0 0 0
3155 2 49.03216898245284 40.617973501375126 24.124580423505318 1 1.909859 2001 0 0 0
2308 2 47.91165601059339 40.195076643274525 24.99212245876545 1 1.909859 2001 0 0 0
8161 2 48.48930124487051 39.916594418660715 24.528352441632126 1 1.909859 2001 0 0 0
7845 2 48.37940815821225 41.04711484732654 24.676909582492602 1 1.909859 2001 0 0 0
6413 2 50.01591475398846 39.8197494032508 23.255747720470957 1 1.909859 2001 0 0 0
5423 2 49.32182786536294 39.78723849212824 23.77985757768278 1 1.909859 2001 0 0 0
5660 2 49.66574085167751 40.892297548002105 23.5656307750919 1 1.909859 2001 0 0 0
3304 2 58.86768741303478 24.93520256171115 26.6385997819224 1 1.909859 2001 0 0 0
4732 2 59.942865696244894 24.74703725410447 26.646089890562173 1 1.909859 2001 0 0 0
4011 2 61.25759325342784 24.7822554561565 26.59795071511996 1 1.909859 2001 0 0 0
7680 2 54.32606717497604 26.781513007045763 26.599156210809824 1 1.909859 2001 0 0 0
8230 2 56.30271253590839 26.101895577465935 26.10632974982331 1 1.909859 2001 0 0 0
5882 2 55.268276638424965 26.437720692445076 26.58913789893005 1 1.909859 2001 0 0 0
8547 2 57.33470576881691 26.249504449247592 25.35731080379637 1 1.909859 2001 0 0 0
5723 2 57.84107557860939 25.717661787633503 25.682156363772528 1 1.909859 2001 0 0 0
7670 2 57.19160544145072 25.5064411240856 26.391974072687134 1 1.909859 2001 0 0 0
7542 2 58.605362575140596 26.195017457567882 25.17614011643484 1 1.909859 2001 0 0 0
4802 2 59.470291552821436 25.18665616078114 25.905819692839156 1 1.909859 2001 0 0 0
6354 2 58.2240245008912 25.137663080988457 26.352463167442853 1 1.909859 2001 0 0 0
5062 2 58.70501526773564 25.549374508002042 25.63259910370871 1 1.909859 2001 0 0 0
6171 2 60.1002852133048 25.71016312991314 25.330360973226348 1 1.909859 2001 0 0 0
5060 2 60.43969097726648 25.198842056967536 26.039820046826843 1 1.909859 2001 0 0 0
3644 2 61.345047694823855 26.13597149453613 25.054634418726053 1 1.909859 2001 0 0 0
5085 2 61.17381532409951 25.568246634328965 25.63961758277178 1 1.909859 2001 0 0 0
6500 2 52.531560725075295 27.718796271354282 26.351409144045913 1 1.909859 2001 0 0 0
6961 2 51.208867292290336 28.086676755402404 26.61034511966776 1 1.909859 2001 0 0 0
3449 2 51.845743516666694 28.371562476986394 26.100693579504416 1 1.909859 2001 0 0 0
7848 2 54.502509613005756 27.116879602001607 25.856870113192862 1 1.909859 2001 0 0 0
8004 2 53.95135953544051 27.93502506704745 25.409180973232633 1 1.909859 2001 0 0 0
4920 2 53.04493782988944 28.217472771326687 25.674419031860523 1 1.909859 2001 0 0 0
7545 2 53.633437970434066 27.26409420262672 25.9350358540935 1 1.909859 2001 0 0 0
6917 2 52.95101472065005 27.080600162137415 26.739415715854115 1 1.909859 2001 0 0 0
3233 2 55.61474641512853 27.453620253307317 25.071453822825006 1 1.909859 2001 0 0 0
3538 2 55.584804181372235 26.84868398565112 25.66585543686037 1 1.909859 2001 0 0 0
3840 2 54.800174555395174 27.670911769017913 25.17660109595978 1 1.909859 2001 0 0 0
7714 2 56.470629880342635 26.917992281430212 25.200650747690688 1 1.909859 2001 0 0 0
5176 2 49.35946321282837 29.892313304276374 26.634075830359834 1 1.909859 2001 0 0 0
5429 2 50.118561882806134 29.40701339110339 26.163843118742694 1 1.909859 2001 0 0 0
8439 2 49.76113954220501 30.167229076635063 25.877524436514364 1 1.909859 2001 0 0 0
6011 2 50.674712864833815 29.79758610057265 25.591647998317992 1 1.909859 2001 0 0 0
2635 2 50.35704115911161 28.654599783702093 26.525584378165465 1 1.909859 2001 0 0 0
4087 2 52.29670340161484 28.77199814711321 25.495244720228804 1 1.909859 2001 0 0 0
8317 2 51.13150134334442 28.84946082769829 25.924502271144203 1 1.909859 2001 0 0 0
4583 2 51.582427203706544 29.314915003473182 25.27725881435245 1 1.909859 2001 0 0 0
5166 2 53.269763471969895 28.67836740778931 25.0264242601335 1 1.909859 2001 0 0 0
129 1 55.34176749186785 28.813432480651485 26.293425864912532 0 1.909859 129 0 0 0
1129 3 55.34176750142707 28.813432476300317 26.29342586626113 0 1.909859 129 0 0 0
130 1 56.005015597377394 29.36342664328248 25.16476277114105 0 1.909859 130 0 0 0
1130 3 56.005015602648534 29.363426633632926 25.164762771671583 0 1.909859 130 0 0 0
131 1 56.851260783799795 29.949254661448336 26.06540660376005 0 1.909859 131 0 0 0
1131 3 56.85126079143862 29.949254669734632 26.065406601632755 0 1.909859 131 0 0 0
7012 2 49.216795767498766 30.84354195039726 26.014976960869923 1 1.909859 2001 0 0 0
2609 2 48.540094967241316 30.91829152261831 26.558379201246666 1 1.909859 2001 0 0 0
3370 2 48.951826387160445 32.02106887782581 25.794699719808094 1 1.909859 2001 0 0 0
8603 2 48.17503339227376 31.819463504861197 26.599959322834227 1 1.909859 2001 0 0 0
2134 2 49.715411709047125 31.55126529162334 25.25237723300293 1 1.909859 2001 0 0 0
8462 2 50.147795105413735 30.753486771234414 25.36769804183776 1 1.909859 2001 0 0 0
1133 3 55.694240563908224 32.13321809943566 25.459718041485303 0 1.909859 133 0 0 0
133 1 55.694240559942386 32.13321809774855 25.45971804560913 0 1.909859 133 0 0 0
1132 3 56.84969423555351 31.245422849555666 25.62622077351562 0 1.909859 132 0 0 0
132 1 56.84969422884638 31.24542285827326 25.626220778715428 0 1.909859 132 0 0 0
141 1 58.285326413283144 32.016278246653386 26.431640884673232 0 1.909859 141 0 0 0
1141 3 58.28532640381406 32.01627824691027 26.431640879905597 0 1.909859 141 0 0 0
6619 2 47.45356949675079 32.41752246128093 26.571890570386184 1 1.909859 2001 0 0 0
2340 2 46.89387478307945 33.109315095122916 26.69523093002005 1 1.909859 2001 0 0 0
3329 2 46.958294643097304 33.86672575950344 26.363011940882377 1 1.909859 2001 0 0 0
2585 2 48.06045139948933 32.57726130329931 26.012738581031694 1 1.909859 2001 0 0 0
5302 2 47.68298090269854 33.45773332344556 25.869156749392626 1 1.909859 2001 0 0 0
5411 2 48.739452351783754 33.01385128797768 25.491679721267733 1 1.909859 2001 0 0 0
8615 2 49.38379706287666 32.603683270386405 25.102209057482042 1 1.909859 2001 0 0 0
1135 3 56.38954418962724 33.74868578875013 25.263782284155024 0 1.909859 135 0 0 0
135 1 56.38954418768717 33.74868578316588 25.2637822923643 0 1.909859 135 0 0 0
136 1 57.675038213613206 33.330082787591714 25.28702979169746 0 1.909859 136 0 0 0
1136 3 57.67503821988011 33.33008277371331 25.287029791772465 0 1.909859 136 0 0 0
6079 2 47.03349850225541 34.77102519881668 26.125214594085044 1 1.909859 2001 0 0 0
5681 2 46.37308810751069 34.97364416221332 26.602902137767188 1 1.909859 2001 0 0 0
2657 2 47.629828002668184 34.54130745121323 25.480031962142142 1 1.909859 2001 0 0 0
4416 2 48.35718645864272 33.97757335357582 25.37187315664569 1 1.909859 2001 0 0 0
4026 2 47.63868205737945 35.49521009260908 25.37975166896283 1 1.909859 2001 0 0 0
138 1 59.182303178545915 34.4171890745292 25.2921148906007 0 1.909859 138 0 0 0
1138 3 59.1823031763411 34.41718906913491 25.292114881637964 0 1.909859 138 0 0 0
139 1 59.62705925604864 33.98728057195116 26.5107666244552 0 1.909859 139 0 0 0
1139 3 59.6270592515479 33.98728056976281 26.510766623097062 0 1.909859 139 0 0 0
6699 2 47.05288617021739 36.90646503422787 25.82885437834781 1 1.909859 2001 0 0 0
4191 2 46.796862591927 35.74050504245757 26.144362800516102 1 1.909859 2001 0 0 0
3780 2 46.234465096128744 36.61871037417731 26.42557815192142 1 1.909859 2001 0 0 0
4135 2 47.56479405249682 36.432217957506005 25.250822912025 1 1.909859 2001 0 0 0
7765 2 45.57149163426818 38.196126564614296 26.77318868400704 1 1.909859 2001 0 0 0
5559 2 46.34295407550062 37.59913317103564 26.233790630402325 1 1.909859 2001 0 0 0
6202 2 47.05729448049902 38.110299887947235 25.651617575456623 1 1.909859 2001 0 0 0
7982 2 46.0366773205046 38.786334006010684 26.343143578778495 1 1.909859 2001 0 0 0
3578 2 46.811671220946316 38.97902607105041 25.861771471267463 1 1.909859 2001 0 0 0
4811 2 47.663736659315745 37.54722935346685 25.295398759716797 1 1.909859 2001 0 0 0
2511 2 47.678948755107896 38.389858640555076 25.257279245423437 1 1.909859 2001 0 0 0
8576 2 47.57974348304852 39.24966319719567 25.284613490007402 1 1.909859 2001 0 0 0
3695 2 45.30026894336021 40.68402574312302 26.755028507401565 1 1.909859 2001 0 0 0
7966 2 45.90018425110946 39.68429323131425 26.450493934062255 1 1.909859 2001 0 0 0
2257 2 47.31312491733499 40.15657535599567 25.560869690957066 1 1.909859 2001 0 0 0
7005 2 46.1608269182877 40.88423067913929 26.474702016688628 1 1.909859 2001 0 0 0
4274 2 47.510612741982676 41.01072964306971 25.387009475214626 1 1.909859 2001 0 0 0
6572 2 46.48295928072143 40.17744834186569 26.077713070825013 1 1.909859 2001 0 0 0
1867 3 49.771872683263204 41.046347696345265 25.68485362932111 0 1.909859 867 0 0 0
1866 3 49.53361785203387 39.92813058464736 26.55305550802516 0 1.909859 866 0 0 0
866 1 49.533617853319186 39.92813059130111 26.553055515325525 0 1.909859 866 0 0 0
867 1 49.77187268326937 41.046347689360275 25.684853635331933 0 1.909859 867 0 0 0
5394 2 54.44049875270305 24.917294590815843 28.479642593232633 1 1.909859 2001 0 0 0
6777 2 55.60416096481621 24.846107110309653 28.149131681942933 1 1.909859 2001 0 0 0
8235 2 56.79787393788486 24.173860864288926 28.50671951460507 1 1.909859 2001 0 0 0
8671 2 57.10795646310395 24.537275071082412 27.80949605267284 1 1.909859 2001 0 0 0
2374 2 56.37783563112979 24.759199119969306 27.80636507299965 1 1.909859 2001 0 0 0
4467 2 57.613295444329985 23.967341432694138 28.189564593863214 1 1.909859 2001 0 0 0
2293 2 58.728480976665644 23.89440961540973 27.99516300324689 1 1.909859 2001 0 0 0
5183 2 59.217340388048164 24.379577655752115 27.355667406310868 1 1.909859 2001 0 0 0
4871 2 58.27590120469724 24.542127149768096 27.51552741540919 1 1.909859 2001 0 0 0
8257 2 59.697645348441895 23.632014591850236 28.375810999125445 1 1.909859 2001 0 0 0
8124 2 61.424866356696 24.195696735946633 27.51975593833414 1 1.909859 2001 0 0 0
3646 2 60.47576668448497 24.488427278195154 27.29317850063547 1 1.909859 2001 0 0 0
4417 2 60.59470396824779 24.10149873677366 28.230540950703915 1 1.909859 2001 0 0 0
8712 2 59.89264652428126 24.19408824071752 27.81080941673175 1 1.909859 2001 0 0 0
7691 2 50.87162181533391 26.734683643175785 27.989137121317754 1 1.909859 2001 0 0 0
2677 2 52.29798728955809 26.599893343463773 27.140396348688967 1 1.909859 2001 0 0 0