LAMMPS data file

1000 atoms
1 atom types
1500 bonds
2 bond types

0.0 140.057271 xlo xhi
0.0 140.057271 ylo yhi
0.0 140.057271 zlo zhi

Masses

1 1

Atoms

1 1 1 133.691031847186622 70.028635729478708 69.528635729478708
2 1 1 133.686005332014162 70.828619938163612 69.528635729478708
3 1 1 133.670926580241826 71.628477820068269 69.528635729478708
4 1 1 133.645797972979324 72.428083068360849 69.528635729478708
5 1 1 133.610623478325039 73.227309416103353 69.528635729478708
6 1 1 133.565408650739414 74.026030656190528 69.528635729478708
7 1 1 133.510160630167888 74.824120661279508 69.528635729478708
8 1 1 133.444888140913378 75.621453403706738 69.528635729478708
9 1 1 133.369601490258560 76.417902975389197 69.528635729478708
10 1 1 133.284312566838366 77.213343607706804 69.528635729478708
11 1 1 133.189034838762467 78.007649691362644 69.528635729478708
12 1 1 133.083783351488648 78.800695796218250 69.528635729478708
13 1 1 132.968574725446842 79.592356691100377 69.528635729478708
14 1 1 132.843427153414638 80.382507363576480 69.528635729478708
15 1 1 132.708360397644469 81.171023039695683 69.528635729478708
16 1 1 132.563395786742745 81.957779203691942 69.528635729478708
17 1 1 132.408556212302074 82.742651617646615 69.528635729478708
18 1 1 132.243866125286161 83.525516341106993 69.528635729478708
19 1 1 132.069351532168923 84.306249750657997 69.528635729478708
20 1 1 131.885039990827664 85.084728559443690 69.528635729478708
21 1 1 131.690960606191311 85.860829836635773 69.528635729478708
22 1 1 131.487144025644625 86.634431026845732 69.528635729478708
23 1 1 131.273622434188326 87.405409969477731 69.528635729478708
24 1 1 131.050429549356920 88.173644918019278 69.528635729478708
25 1 1 130.817600615894321 88.939014559266354 69.528635729478708
26 1 1 130.575172400188080 89.701398032480128 69.528635729478708
27 1 1 130.323183184463858 90.460674948472359 69.528635729478708
28 1 1 130.061672760739896 91.216725408616213 69.528635729478708
29 1 1 129.790682424543661 91.969430023779580 69.528635729478708
30 1 1 129.510254968390655 92.718669933178148 69.528635729478708
31 1 1 129.220434675027036 93.464326823144717 69.528635729478708
32 1 1 128.921267310436775 94.206282945812433 69.528635729478708
33 1 1 128.612800116614864 94.944421137708531 69.528635729478708
34 1 1 128.295081804107042 95.678624838255715 69.528635729478708
35 1 1 127.968162544317963 96.408778108178524 69.528635729478708
36 1 1 127.632093961588524 97.134765647811406 69.528635729478708
37 1 1 127.286929125043756 97.856472815305978 69.528635729478708
38 1 1 126.932722540212637 98.573785644734158 69.528635729478708
39 1 1 126.569530140420994 99.286590864084857 69.528635729478708
40 1 1 126.197409277959025 99.994775913150818 69.528635729478708
41 1 1 125.816418715024668 100.698228961303272 69.528635729478708
42 1 1 125.426618614444408 101.396838925151201 69.528635729478708
43 1 1 125.028070530172812 102.090495486082801 69.528635729478708
44 1 1 124.620837397572515 102.779089107685948 69.528635729478708
45 1 1 124.204983523475960 103.462511053045390 69.528635729478708
46 1 1 123.780574576030560 104.140653401913454 69.528635729478708
47 1 1 123.347677574329069 104.813409067751991 69.528635729478708
48 1 1 122.906360877826330 105.480671814642520 69.528635729478708
49 1 1 122.456694175544612 106.142336274062174 69.528635729478708
50 1 1 121.998748475068936 106.798297961522536 69.528635729478708
51 1 1 121.532596091334085 107.448453293069008 69.528635729478708
52 1 1 121.058310635205231 108.092699601637904 69.528635729478708
53 1 1 120.575967001854025 108.730935153268774 69.528635729478708
54 1 1 120.085641358931639 109.363059163169311 69.528635729478708
55 1 1 119.587411134541128 109.988971811630591 69.528635729478708
56 1 1 119.081355005010636 110.608574259789577 69.528635729478708
57 1 1 118.567552882469371 111.221768665237050 69.528635729478708
58 1 1 118.046085902228668 111.828458197468038 69.528635729478708
59 1 1 117.517036409969748 112.428547053172394 69.528635729478708
60 1 1 116.980487948740375 113.021940471363393 69.528635729478708
61 1 1 116.436525245762439 113.608544748341444 69.528635729478708
62 1 1 115.885234199052547 114.188267252491073 69.528635729478708
63 1 1 115.326701863857778 114.761016438908541 69.528635729478708
64 1 1 114.761016438908541 115.326701863857778 69.528635729478708
65 1 1 114.188267252491073 115.885234199052562 69.528635729478708
66 1 1 113.608544748341444 116.436525245762439 69.528635729478708
67 1 1 113.021940471363393 116.980487948740375 69.528635729478708
68 1 1 112.428547053172394 117.517036409969748 69.528635729478708
69 1 1 111.828458197468024 118.046085902228668 69.528635729478708
70 1 1 111.221768665237050 118.567552882469386 69.528635729478708
71 1 1 110.608574259789577 119.081355005010636 69.528635729478708
72 1 1 109.988971811630591 119.587411134541142 69.528635729478708
73 1 1 109.363059163169311 120.085641358931639 69.528635729478708
74 1 1 108.730935153268774 120.575967001854011 69.528635729478708
75 1 1 108.092699601637918 121.058310635205231 69.528635729478708
76 1 1 107.448453293069008 121.532596091334085 69.528635729478708
77 1 1 106.798297961522536 121.998748475068936 69.528635729478708
78 1 1 106.142336274062160 122.456694175544612 69.528635729478708
79 1 1 105.480671814642520 122.906360877826330 69.528635729478708
80 1 1 104.813409067751991 123.347677574329069 69.528635729478708
81 1 1 104.140653401913454 123.780574576030560 69.528635729478708
82 1 1 103.462511053045390 124.204983523475960 69.528635729478708
83 1 1 102.779089107685948 124.620837397572529 69.528635729478708
84 1 1 102.090495486082801 125.028070530172812 69.528635729478708
85 1 1 101.396838925151201 125.426618614444408 69.528635729478708
86 1 1 100.698228961303272 125.816418715024668 69.528635729478708
87 1 1 99.994775913150818 126.197409277959025 69.528635729478708
88 1 1 99.286590864084843 126.569530140420994 69.528635729478708
89 1 1 98.573785644734158 126.932722540212637 69.528635729478708
90 1 1 97.856472815305978 127.286929125043756 69.528635729478708
91 1 1 97.134765647811406 127.632093961588524 69.528635729478708
92 1 1 96.408778108178510 127.968162544317977 69.528635729478708
93 1 1 95.678624838255715 128.295081804107042 69.528635729478708
94 1 1 94.944421137708531 128.612800116614864 69.528635729478708
95 1 1 94.206282945812433 128.921267310436775 69.528635729478708
96 1 1 93.464326823144702 129.220434675027036 69.528635729478708
97 1 1 92.718669933178148 129.510254968390655 69.528635729478708
98 1 1 91.969430023779580 129.790682424543661 69.528635729478708
99 1 1 91.216725408616213 130.061672760739896 69.528635729478708
100 1 1 90.460674948472359 130.323183184463858 69.528635729478708
101 1 1 89.701398032480128 130.575172400188080 69.528635729478708
102 1 1 88.939014559266354 130.817600615894321 69.528635729478708
103 1 1 88.173644918019292 131.050429549356920 69.528635729478708
104 1 1 87.405409969477731 131.273622434188326 69.528635729478708
105 1 1 86.634431026845732 131.487144025644625 69.528635729478708
106 1 1 85.860829836635773 131.690960606191311 69.528635729478708
107 1 1 85.084728559443704 131.885039990827636 69.528635729478708
108 1 1 84.306249750657997 132.069351532168923 69.528635729478708
109 1 1 83.525516341106979 132.243866125286161 69.528635729478708
110 1 1 82.742651617646615 132.408556212302074 69.528635729478708
111 1 1 81.957779203691942 132.563395786742745 69.528635729478708
112 1 1 81.171023039695683 132.708360397644469 69.528635729478708
113 1 1 80.382507363576480 132.843427153414638 69.528635729478708
114 1 1 79.592356691100377 132.968574725446842 69.528635729478708
115 1 1 78.800695796218250 133.083783351488648 69.528635729478708
116 1 1 78.007649691362644 133.189034838762467 69.528635729478708
117 1 1 77.213343607706790 133.284312566838366 69.528635729478708
118 1 1 76.417902975389197 133.369601490258560 69.528635729478708
119 1 1 75.621453403706724 133.444888140913378 69.528635729478708
120 1 1 74.824120661279508 133.510160630167888 69.528635729478708
121 1 1 74.026030656190528 133.565408650739414 69.528635729478708
122 1 1 73.227309416103353 133.610623478325039 69.528635729478708
123 1 1 72.428083068360849 133.645797972979324 69.528635729478708
124 1 1 71.628477820068269 133.670926580241826 69.528635729478708
125 1 1 70.828619938163612 133.686005332014162 69.528635729478708
126 1 1 70.028635729478708 133.691031847186622 69.528635729478708
127 1 1 69.228651520793790 133.686005332014162 69.528635729478708
128 1 1 68.428793638889161 133.670926580241826 69.528635729478708
129 1 1 67.629188390596568 133.645797972979324 69.528635729478708
130 1 1 66.829962042854063 133.610623478325039 69.528635729478708
131 1 1 66.031240802766888 133.565408650739414 69.528635729478708
132 1 1 65.233150797677894 133.510160630167888 69.528635729478708
133 1 1 64.435818055250678 133.444888140913378 69.528635729478708
134 1 1 63.639368483568212 133.369601490258560 69.528635729478708
135 1 1 62.843927851250619 133.284312566838366 69.528635729478708
136 1 1 62.049621767594758 133.189034838762467 69.528635729478708
137 1 1 61.256575662739166 133.083783351488648 69.528635729478708
138 1 1 60.464914767857039 132.968574725446842 69.528635729478708
139 1 1 59.674764095380930 132.843427153414638 69.528635729478708
140 1 1 58.886248419261726 132.708360397644469 69.528635729478708
141 1 1 58.099492255265474 132.563395786742745 69.528635729478708
142 1 1 57.314619841310794 132.408556212302074 69.528635729478708
143 1 1 56.531755117850423 132.243866125286161 69.528635729478708
144 1 1 55.751021708299419 132.069351532168923 69.528635729478708
145 1 1 54.972542899513726 131.885039990827664 69.528635729478708
146 1 1 54.196441622321636 131.690960606191311 69.528635729478708
147 1 1 53.422840432111698 131.487144025644625 69.528635729478708
148 1 1 52.651861489479685 131.273622434188326 69.528635729478708
149 1 1 51.883626540938138 131.050429549356949 69.528635729478708
150 1 1 51.118256899691062 130.817600615894321 69.528635729478708
151 1 1 50.355873426477281 130.575172400188080 69.528635729478708
152 1 1 49.596596510485050 130.323183184463858 69.528635729478708
153 1 1 48.840546050341203 130.061672760739896 69.528635729478708
154 1 1 48.087841435177829 129.790682424543661 69.528635729478708
155 1 1 47.338601525779268 129.510254968390655 69.528635729478708
156 1 1 46.592944635812707 129.220434675027036 69.528635729478708
157 1 1 45.850988513144969 128.921267310436775 69.528635729478708
158 1 1 45.112850321248885 128.612800116614864 69.528635729478708
159 1 1 44.378646620701694 128.295081804107042 69.528635729478708
160 1 1 43.648493350778892 127.968162544317963 69.528635729478708
161 1 1 42.922505811145996 127.632093961588510 69.528635729478708
162 1 1 42.200798643651424 127.286929125043741 69.528635729478708
163 1 1 41.483485814223258 126.932722540212637 69.528635729478708
164 1 1 40.770680594872559 126.569530140420994 69.528635729478708
165 1 1 40.062495545806591 126.197409277959025 69.528635729478708
166 1 1 39.359042497654144 125.816418715024668 69.528635729478708
167 1 1 38.660432533806215 125.426618614444408 69.528635729478708
168 1 1 37.966775972874622 125.028070530172812 69.528635729478708
169 1 1 37.278182351271461 124.620837397572515 69.528635729478708
170 1 1 36.594760405912020 124.204983523475946 69.528635729478708
171 1 1 35.916618057043976 123.780574576030574 69.528635729478708
172 1 1 35.243862391205433 123.347677574329069 69.528635729478708
173 1 1 34.576599644314889 122.906360877826330 69.528635729478708
174 1 1 33.914935184895235 122.456694175544612 69.528635729478708
175 1 1 33.258973497434866 121.998748475068936 69.528635729478708
176 1 1 32.608818165888408 121.532596091334085 69.528635729478708
177 1 1 31.964571857319505 121.058310635205231 69.528635729478708
178 1 1 31.326336305688642 120.575967001854011 69.528635729478708
179 1 1 30.694212295788084 120.085641358931625 69.528635729478708
180 1 1 30.068299647326832 119.587411134541142 69.528635729478708
181 1 1 29.448697199167839 119.081355005010636 69.528635729478708
182 1 1 28.835502793720352 118.567552882469371 69.528635729478708
183 1 1 28.228813261489371 118.046085902228668 69.528635729478708
184 1 1 27.628724405785022 117.517036409969762 69.528635729478708
185 1 1 27.035330987594023 116.980487948740375 69.528635729478708
186 1 1 26.448726710615972 116.436525245762425 69.528635729478708
187 1 1 25.869004206466329 115.885234199052547 69.528635729478708
188 1 1 25.296255020048882 115.326701863857778 69.528635729478708
189 1 1 24.730569595099631 114.761016438908541 69.528635729478708
190 1 1 24.172037259904855 114.188267252491073 69.528635729478708
191 1 1 23.620746213194970 113.608544748341430 69.528635729478708
192 1 1 23.076783510217048 113.021940471363393 69.528635729478708
193 1 1 22.540235048987668 112.428547053172394 69.528635729478708
194 1 1 22.011185556728741 111.828458197468024 69.528635729478708
195 1 1 21.489718576488031 111.221768665237050 69.528635729478708
196 1 1 20.975916453946766 110.608574259789563 69.528635729478708
197 1 1 20.469860324416281 109.988971811630591 69.528635729478708
198 1 1 19.971630100025784 109.363059163169311 69.528635729478708
199 1 1 19.481304457103398 108.730935153268760 69.528635729478708
200 1 1 18.998960823752171 108.092699601637889 69.528635729478708
201 1 1 18.524675367623338 107.448453293069022 69.528635729478708
202 1 1 18.058522983888473 106.798297961522536 69.528635729478708
203 1 1 17.600577283412804 106.142336274062160 69.528635729478708
204 1 1 17.150910581131086 105.480671814642506 69.528635729478708
205 1 1 16.709593884628354 104.813409067751991 69.528635729478708
206 1 1 16.276696882926856 104.140653401913454 69.528635729478708
207 1 1 15.852287935481456 103.462511053045375 69.528635729478708
208 1 1 15.436434061384894 102.779089107685934 69.528635729478708
209 1 1 15.029200928784604 102.090495486082801 69.528635729478708
210 1 1 14.630652844513008 101.396838925151201 69.528635729478708
211 1 1 14.240852743932741 100.698228961303258 69.528635729478708
212 1 1 13.859862180998384 99.994775913150818 69.528635729478708
213 1 1 13.487741318536429 99.286590864084872 69.528635729478708
214 1 1 13.124548918744786 98.573785644734158 69.528635729478708
215 1 1 12.770342333913661 97.856472815305978 69.528635729478708
216 1 1 12.425177497368892 97.134765647811406 69.528635729478708
217 1 1 12.089108914639446 96.408778108178495 69.528635729478708
218 1 1 11.762189654850374 95.678624838255729 69.528635729478708
219 1 1 11.444471342342545 94.944421137708531 69.528635729478708
220 1 1 11.136004148520627 94.206282945812433 69.528635729478708
221 1 1 10.836836783930387 93.464326823144688 69.528635729478708
222 1 1 10.547016490566754 92.718669933178148 69.528635729478708
223 1 1 10.266589034413748 91.969430023779580 69.528635729478708
224 1 1 9.995598698217513 91.216725408616199 69.528635729478708
225 1 1 9.734088274493558 90.460674948472345 69.528635729478708
226 1 1 9.482099058769322 89.701398032480128 69.528635729478708
227 1 1 9.239670843063095 88.939014559266354 69.528635729478708
228 1 1 9.006841909600475 88.173644918019278 69.528635729478708
229 1 1 8.783649024769097 87.405409969477716 69.528635729478708
230 1 1 8.570127433312798 86.634431026845732 69.528635729478708
231 1 1 8.366310852766091 85.860829836635773 69.528635729478708
232 1 1 8.172231468129759 85.084728559443690 69.528635729478708
233 1 1 7.987919926788486 84.306249750657983 69.528635729478708
234 1 1 7.813405333671255 83.525516341107007 69.528635729478708
235 1 1 7.648715246655350 82.742651617646615 69.528635729478708
236 1 1 7.493875672214664 81.957779203691942 69.528635729478708
237 1 1 7.348911061312954 81.171023039695669 69.528635729478708
238 1 1 7.213844305542764 80.382507363576465 69.528635729478708
239 1 1 7.088696733510588 79.592356691100377 69.528635729478708
240 1 1 6.973488107468782 78.800695796218250 69.528635729478708
241 1 1 6.868236620194949 78.007649691362644 69.528635729478708
242 1 1 6.772958892119057 77.213343607706776 69.528635729478708
243 1 1 6.687669968698849 76.417902975389211 69.528635729478708
244 1 1 6.612383318044039 75.621453403706738 69.528635729478708
245 1 1 6.547110828789513 74.824120661279508 69.528635729478708
246 1 1 6.491862808217988 74.026030656190514 69.528635729478708
247 1 1 6.446647980632370 73.227309416103353 69.528635729478708
248 1 1 6.411473485978078 72.428083068360849 69.528635729478708
249 1 1 6.386344878715576 71.628477820068255 69.528635729478708
250 1 1 6.371266126943247 70.828619938163598 69.528635729478708
251 1 1 6.366239611770801 70.028635729478722 69.528635729478708
252 1 1 6.371266126943247 69.228651520793804 69.528635729478708
253 1 1 6.386344878715576 68.428793638889147 69.528635729478708
254 1 1 6.411473485978078 67.629188390596553 69.528635729478708
255 1 1 6.446647980632370 66.829962042854078 69.528635729478708
256 1 1 6.491862808217988 66.031240802766888 69.528635729478708
257 1 1 6.547110828789513 65.233150797677894 69.528635729478708
258 1 1 6.612383318044039 64.435818055250678 69.528635729478708
259 1 1 6.687669968698849 63.639368483568198 69.528635729478708
260 1 1 6.772958892119057 62.843927851250619 69.528635729478708
261 1 1 6.868236620194949 62.049621767594765 69.528635729478708
262 1 1 6.973488107468782 61.256575662739152 69.528635729478708
263 1 1 7.088696733510588 60.464914767857024 69.528635729478708
264 1 1 7.213844305542771 59.674764095380937 69.528635729478708
265 1 1 7.348911061312961 58.886248419261733 69.528635729478708
266 1 1 7.493875672214671 58.099492255265460 69.528635729478708
267 1 1 7.648715246655350 57.314619841310787 69.528635729478708
268 1 1 7.813405333671255 56.531755117850430 69.528635729478708
269 1 1 7.987919926788493 55.751021708299426 69.528635729478708
270 1 1 8.172231468129766 54.972542899513719 69.528635729478708
271 1 1 8.366310852766091 54.196441622321629 69.528635729478708
272 1 1 8.570127433312798 53.422840432111698 69.528635729478708
273 1 1 8.783649024769097 52.651861489479685 69.528635729478708
274 1 1 9.006841909600482 51.883626540938124 69.528635729478708
275 1 1 9.239670843063095 51.118256899691055 69.528635729478708
276 1 1 9.482099058769315 50.355873426477302 69.528635729478708
277 1 1 9.734088274493558 49.596596510485057 69.528635729478708
278 1 1 9.995598698217520 48.840546050341203 69.528635729478708
279 1 1 10.266589034413748 48.087841435177822 69.528635729478708
280 1 1 10.547016490566762 47.338601525779254 69.528635729478708
281 1 1 10.836836783930387 46.592944635812714 69.528635729478708
282 1 1 11.136004148520634 45.850988513144969 69.528635729478708
283 1 1 11.444471342342553 45.112850321248871 69.528635729478708
284 1 1 11.762189654850381 44.378646620701687 69.528635729478708
285 1 1 12.089108914639453 43.648493350778899 69.528635729478708
286 1 1 12.425177497368900 42.922505811146003 69.528635729478708
287 1 1 12.770342333913668 42.200798643651432 69.528635729478708
288 1 1 13.124548918744793 41.483485814223243 69.528635729478708
289 1 1 13.487741318536422 40.770680594872566 69.528635729478708
290 1 1 13.859862180998391 40.062495545806598 69.528635729478708
291 1 1 14.240852743932749 39.359042497654144 69.528635729478708
292 1 1 14.630652844513016 38.660432533806201 69.528635729478708
293 1 1 15.029200928784597 37.966775972874622 69.528635729478708
294 1 1 15.436434061384901 37.278182351271468 69.528635729478708
295 1 1 15.852287935481463 36.594760405912020 69.528635729478708
296 1 1 16.276696882926863 35.916618057043955 69.528635729478708
297 1 1 16.709593884628347 35.243862391205433 69.528635729478708
298 1 1 17.150910581131093 34.576599644314896 69.528635729478708
299 1 1 17.600577283412811 33.914935184895242 69.528635729478708
300 1 1 18.058522983888480 33.258973497434873 69.528635729478708
301 1 1 18.524675367623345 32.608818165888387 69.528635729478708
302 1 1 18.998960823752178 31.964571857319513 69.528635729478708
303 1 1 19.481304457103406 31.326336305688642 69.528635729478708
304 1 1 19.971630100025791 30.694212295788091 69.528635729478708
305 1 1 20.469860324416288 30.068299647326810 69.528635729478708
306 1 1 20.975916453946773 29.448697199167846 69.528635729478708
307 1 1 21.489718576488038 28.835502793720359 69.528635729478708
308 1 1 22.011185556728748 28.228813261489378 69.528635729478708
309 1 1 22.540235048987675 27.628724405785007 69.528635729478708
310 1 1 23.076783510217041 27.035330987594030 69.528635729478708
311 1 1 23.620746213194977 26.448726710615972 69.528635729478708
312 1 1 24.172037259904862 25.869004206466336 69.528635729478708
313 1 1 24.730569595099645 25.296255020048861 69.528635729478708
314 1 1 25.296255020048868 24.730569595099638 69.528635729478708
315 1 1 25.869004206466343 24.172037259904855 69.528635729478708
316 1 1 26.448726710615979 23.620746213194977 69.528635729478708
317 1 1 27.035330987594037 23.076783510217034 69.528635729478708
318 1 1 27.628724405785015 22.540235048987668 69.528635729478708
319 1 1 28.228813261489385 22.011185556728748 69.528635729478708
320 1 1 28.835502793720366 21.489718576488038 69.528635729478708
321 1 1 29.448697199167853 20.975916453946766 69.528635729478708
322 1 1 30.068299647326839 20.469860324416267 69.528635729478708
323 1 1 30.694212295788120 19.971630100025770 69.528635729478708
324 1 1 31.326336305688677 19.481304457103384 69.528635729478708
325 1 1 31.964571857319498 18.998960823752192 69.528635729478708
326 1 1 32.608818165888394 18.524675367623338 69.528635729478708
327 1 1 33.258973497434880 18.058522983888473 69.528635729478708
328 1 1 33.914935184895249 17.600577283412804 69.528635729478708
329 1 1 34.576599644314904 17.150910581131086 69.528635729478708
330 1 1 35.243862391205440 16.709593884628340 69.528635729478708
331 1 1 35.916618057043983 16.276696882926842 69.528635729478708
332 1 1 36.594760405912055 15.852287935481449 69.528635729478708
333 1 1 37.278182351271447 15.436434061384908 69.528635729478708
334 1 1 37.966775972874608 15.029200928784611 69.528635729478708
335 1 1 38.660432533806201 14.630652844513016 69.528635729478708
336 1 1 39.359042497654151 14.240852743932741 69.528635729478708
337 1 1 40.062495545806598 13.859862180998384 69.528635729478708
338 1 1 40.770680594872573 13.487741318536422 69.528635729478708
339 1 1 41.483485814223272 13.124548918744779 69.528635729478708
340 1 1 42.200798643651467 12.770342333913653 69.528635729478708
341 1 1 42.922505811145982 12.425177497368907 69.528635729478708
342 1 1 43.648493350778878 12.089108914639461 69.528635729478708
343 1 1 44.378646620701687 11.762189654850374 69.528635729478708
344 1 1 45.112850321248885 11.444471342342545 69.528635729478708
345 1 1 45.850988513144983 11.136004148520634 69.528635729478708
346 1 1 46.592944635812714 10.836836783930387 69.528635729478708
347 1 1 47.338601525779296 10.547016490566747 69.528635729478708
348 1 1 48.087841435177850 10.266589034413741 69.528635729478708
349 1 1 48.840546050341239 9.995598698217506 69.528635729478708
350 1 1 49.596596510485035 9.734088274493566 69.528635729478708
351 1 1 50.355873426477281 9.482099058769322 69.528635729478708
352 1 1 51.118256899691062 9.239670843063095 69.528635729478708
353 1 1 51.883626540938131 9.006841909600475 69.528635729478708
354 1 1 52.651861489479693 8.783649024769097 69.528635729478708
355 1 1 53.422840432111713 8.570127433312791 69.528635729478708
356 1 1 54.196441622321657 8.366310852766084 69.528635729478708
357 1 1 54.972542899513755 8.172231468129752 69.528635729478708
358 1 1 55.751021708299405 7.987919926788493 69.528635729478708
359 1 1 56.531755117850409 7.813405333671263 69.528635729478708
360 1 1 57.314619841310794 7.648715246655350 69.528635729478708
361 1 1 58.099492255265467 7.493875672214664 69.528635729478708
362 1 1 58.886248419261740 7.348911061312954 69.528635729478708
363 1 1 59.674764095380944 7.213844305542764 69.528635729478708
364 1 1 60.464914767857060 7.088696733510581 69.528635729478708
365 1 1 61.256575662739188 6.973488107468775 69.528635729478708
366 1 1 62.049621767594800 6.868236620194949 69.528635729478708
367 1 1 62.843927851250605 6.772958892119057 69.528635729478708
368 1 1 63.639368483568205 6.687669968698849 69.528635729478708
369 1 1 64.435818055250678 6.612383318044039 69.528635729478708
370 1 1 65.233150797677908 6.547110828789513 69.528635729478708
371 1 1 66.031240802766902 6.491862808217988 69.528635729478708
372 1 1 66.829962042854078 6.446647980632370 69.528635729478708
373 1 1 67.629188390596596 6.411473485978071 69.528635729478708
374 1 1 68.428793638889189 6.386344878715569 69.528635729478708
375 1 1 69.228651520793775 6.371266126943247 69.528635729478708
376 1 1 70.028635729478694 6.366239611770801 69.528635729478708
377 1 1 70.828619938163612 6.371266126943247 69.528635729478708
378 1 1 71.628477820068269 6.386344878715576 69.528635729478708
379 1 1 72.428083068360863 6.411473485978078 69.528635729478708
380 1 1 73.227309416103367 6.446647980632370 69.528635729478708
381 1 1 74.026030656190557 6.491862808217988 69.528635729478708
382 1 1 74.824120661279537 6.547110828789513 69.528635729478708
383 1 1 75.621453403706710 6.612383318044039 69.528635729478708
384 1 1 76.417902975389183 6.687669968698849 69.528635729478708
385 1 1 77.213343607706790 6.772958892119057 69.528635729478708
386 1 1 78.007649691362644 6.868236620194949 69.528635729478708
387 1 1 78.800695796218264 6.973488107468782 69.528635729478708
388 1 1 79.592356691100392 7.088696733510588 69.528635729478708
389 1 1 80.382507363576508 7.213844305542771 69.528635729478708
390 1 1 81.171023039695712 7.348911061312961 69.528635729478708
391 1 1 81.957779203691985 7.493875672214671 69.528635729478708
392 1 1 82.742651617646601 7.648715246655343 69.528635729478708
393 1 1 83.525516341106979 7.813405333671255 69.528635729478708
394 1 1 84.306249750657983 7.987919926788493 69.528635729478708
395 1 1 85.084728559443690 8.172231468129759 69.528635729478708
396 1 1 85.860829836635787 8.366310852766091 69.528635729478708
397 1 1 86.634431026845746 8.570127433312805 69.528635729478708
398 1 1 87.405409969477759 8.783649024769105 69.528635729478708
399 1 1 88.173644918019320 9.006841909600489 69.528635729478708
400 1 1 88.939014559266326 9.239670843063088 69.528635729478708
401 1 1 89.701398032480114 9.482099058769315 69.528635729478708
402 1 1 90.460674948472359 9.734088274493558 69.528635729478708
403 1 1 91.216725408616213 9.995598698217520 69.528635729478708
404 1 1 91.969430023779594 10.266589034413748 69.528635729478708
405 1 1 92.718669933178148 10.547016490566754 69.528635729478708
406 1 1 93.464326823144731 10.836836783930401 69.528635729478708
407 1 1 94.206282945812461 11.136004148520641 69.528635729478708
408 1 1 94.944421137708559 11.444471342342560 69.528635729478708
409 1 1 95.678624838255701 11.762189654850367 69.528635729478708
410 1 1 96.408778108178510 12.089108914639446 69.528635729478708
411 1 1 97.134765647811406 12.425177497368892 69.528635729478708
412 1 1 97.856472815305978 12.770342333913668 69.528635729478708
413 1 1 98.573785644734173 13.124548918744793 69.528635729478708
414 1 1 99.286590864084872 13.487741318536436 69.528635729478708
415 1 1 99.994775913150846 13.859862180998405 69.528635729478708
416 1 1 100.698228961303300 14.240852743932756 69.528635729478708
417 1 1 101.396838925151187 14.630652844513001 69.528635729478708
418 1 1 102.090495486082787 15.029200928784597 69.528635729478708
419 1 1 102.779089107685948 15.436434061384894 69.528635729478708
420 1 1 103.462511053045390 15.852287935481463 69.528635729478708
421 1 1 104.140653401913454 16.276696882926863 69.528635729478708
422 1 1 104.813409067752005 16.709593884628362 69.528635729478708
423 1 1 105.480671814642534 17.150910581131107 69.528635729478708
424 1 1 106.142336274062188 17.600577283412825 69.528635729478708
425 1 1 106.798297961522508 18.058522983888459 69.528635729478708
426 1 1 107.448453293069008 18.524675367623324 69.528635729478708
427 1 1 108.092699601637904 18.998960823752178 69.528635729478708
428 1 1 108.730935153268774 19.481304457103406 69.528635729478708
429 1 1 109.363059163169325 19.971630100025791 69.528635729478708
430 1 1 109.988971811630606 20.469860324416281 69.528635729478708
431 1 1 110.608574259789592 20.975916453946787 69.528635729478708
432 1 1 111.221768665237079 21.489718576488059 69.528635729478708
433 1 1 111.828458197468052 22.011185556728769 69.528635729478708
434 1 1 112.428547053172394 22.540235048987654 69.528635729478708
435 1 1 113.021940471363393 23.076783510217034 69.528635729478708
436 1 1 113.608544748341444 23.620746213194977 69.528635729478708
437 1 1 114.188267252491073 24.172037259904862 69.528635729478708
438 1 1 114.761016438908541 24.730569595099638 69.528635729478708
439 1 1 115.326701863857792 25.296255020048889 69.528635729478708
440 1 1 115.885234199052576 25.869004206466357 69.528635729478708
441 1 1 116.436525245762454 26.448726710616000 69.528635729478708
442 1 1 116.980487948740361 27.035330987594008 69.528635729478708
443 1 1 117.517036409969734 27.628724405785007 69.528635729478708
444 1 1 118.046085902228668 28.228813261489378 69.528635729478708
445 1 1 118.567552882469386 28.835502793720359 69.528635729478708
446 1 1 119.081355005010650 29.448697199167846 69.528635729478708
447 1 1 119.587411134541156 30.068299647326839 69.528635729478708
448 1 1 120.085641358931639 30.694212295788112 69.528635729478708
449 1 1 120.575967001854025 31.326336305688670 69.528635729478708
450 1 1 121.058310635205260 31.964571857319541 69.528635729478708
451 1 1 121.532596091334085 32.608818165888387 69.528635729478708
452 1 1 121.998748475068936 33.258973497434873 69.528635729478708
453 1 1 122.456694175544612 33.914935184895242 69.528635729478708
454 1 1 122.906360877826330 34.576599644314896 69.528635729478708
455 1 1 123.347677574329083 35.243862391205440 69.528635729478708
456 1 1 123.780574576030574 35.916618057043983 69.528635729478708
457 1 1 124.204983523475960 36.594760405912048 69.528635729478708