LAMMPS data file via write_data, version 23 Jun 2022, timestep = 15000000

1000 atoms
1 atom types
1500 bonds
2 bond types

0 140.057271 xlo xhi
0 140.057271 ylo yhi
0 140.057271 zlo zhi

Masses

1 1

Pair Coeffs # soft

1 20

Bond Coeffs # harmonic

1 100 0.7
2 100 0.7

Atoms # bond

856 2 1 68.59508794444415 67.54343110850287 65.00101397009082 0 0 0
357 1 1 69.46319451199695 67.92382375405542 64.90396343546696 0 0 0
859 2 1 71.1148703736385 67.75970148792561 64.79046119090724 0 0 0
358 1 1 70.19152104360845 68.06056317437846 64.66209265170042 0 0 0
359 1 1 70.83739399447958 68.53292271859796 64.62221013390075 0 0 0
360 1 1 71.64314649033867 68.78547432766722 64.81557403202673 0 0 0
707 2 1 68.78894363856796 69.77338444356673 64.82633230050773 0 0 0
153 1 1 69.93918752358371 69.98925842510701 64.32622017453053 0 0 0
154 1 1 69.80996209867483 69.44496431362764 64.80871241022767 0 0 0
152 1 1 70.71192502297998 69.86747993086837 64.68478031001972 0 0 0
206 1 1 67.7564586892633 70.04649374596352 64.82838491786579 0 0 0
207 1 1 68.3374113371567 70.31504538465626 64.52859953946171 0 0 0
208 1 1 69.02258698788552 70.69628559389281 64.43886737138774 0 0 0
653 2 1 69.89963211291497 70.48339363859266 64.8510680991949 0 0 0
652 2 1 70.6317612517249 70.74042534911072 64.53269189740917 0 0 0
209 1 1 69.04719059067318 71.5053117489161 64.64243881046097 0 0 0
211 1 1 69.89377484972022 72.23405349328549 64.71871974013219 0 0 0
339 1 1 69.26484213730818 66.55219984727896 65.9702609497861 0 0 0
338 1 1 70.12371290129254 66.5944394955597 65.66925079443692 0 0 0
854 2 1 67.65607531018836 67.11988788892289 65.80039860397146 0 0 0
855 2 1 67.96365137864264 67.61617451499455 65.5671703436594 0 0 0
355 1 1 68.45170714307106 67.77421566001433 65.94302207711617 0 0 0
857 2 1 69.40574279077713 67.19654099354587 65.13505509932966 0 0 0
858 2 1 70.26848942513385 67.54991177410757 65.1124087351299 0 0 0
337 1 1 70.93138299095867 67.05275892750727 65.69596559474807 0 0 0
835 2 1 72.30917560740329 67.78367407209265 65.87928794481735 0 0 0
334 1 1 73.07409491676596 67.62092597941454 66.02304607794893 0 0 0
877 2 1 67.24379886515781 68.90503511746071 65.98919485046308 0 0 0
356 1 1 68.7451326902209 68.1513920910154 65.3769866354085 0 0 0
156 1 1 69.80727997216792 68.38429022686961 65.63704087041371 0 0 0
155 1 1 70.04876694917529 68.9516156056912 65.34783235672057 0 0 0
157 1 1 70.55867657551867 68.29872654852859 65.69389464380754 0 0 0
860 2 1 71.9004249502163 68.07236421862667 65.03086152873249 0 0 0
861 2 1 71.90021914068025 68.67085515315742 65.77662221766526 0 0 0
878 2 1 66.57857565084815 69.15865178839091 65.67738257693868 0 0 0
378 1 1 66.95957420415331 69.83520509620625 65.95847820185591 0 0 0
706 2 1 68.23173637923682 69.77014295625786 65.40442168773328 0 0 0
654 2 1 69.78264919161396 69.85646304348737 65.35653087488517 0 0 0
655 2 1 69.41386281237938 69.38092221108177 65.7935618911086 0 0 0
361 1 1 71.70283182121418 69.29057500652101 65.33752776398524 0 0 0
862 2 1 72.75686200541006 69.05097761850536 65.83780089466106 0 0 0
362 1 1 72.17972537649327 69.64807412334356 65.8388494179505 0 0 0
316 1 1 73.7230580708899 69.8139630243607 65.86105677566515 0 0 0
204 1 1 66.87438333223443 70.84121342254454 65.95776823028388 0 0 0
205 1 1 67.50802558661434 70.59373512290472 65.39842428672695 0 0 0
708 2 1 68.98070748238449 70.61496573778074 65.1613169535111 0 0 0
705 2 1 68.05973433831713 70.35185915189744 65.85534337757584 0 0 0
651 2 1 70.70603638162464 70.72247362602111 65.28209392045125 0 0 0
151 1 1 71.26409651948336 70.15601830600588 65.17148795803688 0 0 0
150 1 1 71.82181143534015 70.68296931778872 65.24531914476188 0 0 0
202 1 1 66.82964684222988 71.79728138342878 65.70445794293785 0 0 0
702 2 1 67.57950626627515 71.52885250462482 65.31508816111894 0 0 0
709 2 1 68.7675138736725 71.3190581363785 65.4320754077919 0 0 0
210 1 1 69.34682518566393 71.95502429562735 65.28556757944826 0 0 0
710 2 1 69.70912017876742 71.2720477583318 65.66942123399431 0 0 0
711 2 1 70.16609266257696 71.62247473449825 65.09408246868173 0 0 0
713 2 1 70.77932526502372 71.81041703212378 65.701620629063 0 0 0
650 2 1 71.3070714028135 71.28406389444615 65.14642953557978 0 0 0
649 2 1 71.95495509854884 71.63421372540299 65.08465073933147 0 0 0
149 1 1 72.50317960634172 71.21831479638213 65.13767293532129 0 0 0
648 2 1 72.12637442807852 71.82332285900083 65.85910358520555 0 0 0
148 1 1 72.8115659359221 71.83258045724435 65.46875158854792 0 0 0
147 1 1 73.47303790936002 71.72512251948268 65.91818278037276 0 0 0
201 1 1 66.92059623632643 72.65541280456111 65.97698316115643 0 0 0
701 2 1 67.59653197078579 72.44577056022797 65.4770089435143 0 0 0
212 1 1 70.43313946711193 72.69895962380852 65.23244780143953 0 0 0
712 2 1 70.82066740515286 72.13212016659809 65.08583357742056 0 0 0
213 1 1 70.28575857392015 72.32741267975426 65.92914022151514 0 0 0
700 2 1 67.67135108756207 73.24898147222206 65.85518984094898 0 0 0
690 2 1 71.80528312315981 73.68607977349511 65.9888479303066 0 0 0
340 1 1 68.72328827011962 65.95128993246583 66.25789341882631 0 0 0
341 1 1 68.09963895697332 66.03514327512042 66.64601095151764 0 0 0
840 2 1 69.06837678649721 66.16764324169542 66.92099656599433 0 0 0
839 2 1 69.72171637896496 66.41602243879328 66.43253771770746 0 0 0
838 2 1 70.27900112166256 67.02197783703312 66.38892408389715 0 0 0
584 2 1 71.18747201722427 66.06402647319247 66.90235156607312 0 0 0
336 1 1 71.59917595187318 66.908486524614 66.20439197760898 0 0 0
335 1 1 72.522833551206 66.96170398854754 66.07159514109001 0 0 0
332 1 1 72.92561525960954 66.37202114852842 66.79994691261436 0 0 0
852 2 1 66.41823430001881 67.78502549457514 66.81039220045284 0 0 0
853 2 1 67.06523988888783 67.6015668800309 66.25392847779375 0 0 0
353 1 1 67.35373761839476 67.23742249559237 66.8049089601582 0 0 0
354 1 1 68.10719364548589 67.32493737036552 66.58853316480868 0 0 0
873 2 1 68.6841864644998 67.93968909094802 66.92081121568772 0 0 0
837 2 1 70.92094500861278 67.50099941590554 66.33329870185298 0 0 0
836 2 1 71.72341869647445 67.51756510813972 66.46294750250237 0 0 0
834 2 1 72.52285733029511 67.66274642167684 66.64026447297131 0 0 0
333 1 1 73.32777906332446 67.06398761517728 66.6137072924988 0 0 0
319 1 1 73.9773076455908 67.81664717327767 66.7224119031528 0 0 0
880 2 1 65.74165722700357 69.00430591666489 66.5265106020894 0 0 0
879 2 1 66.51581323089357 69.01989983875241 66.4880707420289 0 0 0
876 2 1 67.70769268912963 68.44811800975896 66.25040955741287 0 0 0
875 2 1 67.39145879745364 68.22102650277718 67.00440051221716 0 0 0
376 1 1 67.99213038621869 69.01131354733468 66.86501789870933 0 0 0
656 2 1 69.30075288187608 68.56174766711035 66.14836649242498 0 0 0
657 2 1 70.16352222849345 68.67252936221331 66.2941111650141 0 0 0
658 2 1 70.75421071502463 68.81286072104221 66.93888295863769 0 0 0
158 1 1 71.0828744329163 68.99525849118247 66.09091236680159 0 0 0
318 1 1 73.65339295423753 68.49751741584197 66.62347736998426 0 0 0
818 2 1 74.492054349315 68.74543333540703 66.85283923933873 0 0 0
380 1 1 65.6347939775104 69.6384055570298 66.78607334920767 0 0 0
379 1 1 66.43740134461659 69.8233209369304 66.56903298561602 0 0 0
377 1 1 67.50593570272137 69.55254174758083 66.48470960140693 0 0 0
944 2 1 69.20299193588302 69.59074247263993 66.78526263333127 0 0 0
159 1 1 70.59600007271673 69.52827434767958 66.23378002645292 0 0 0
659 2 1 70.45762040199592 69.47593425658337 66.96108009581333 0 0 0
660 2 1 71.16426245929102 69.90091302900602 66.90035764814587 0 0 0
863 2 1 72.8611792956931 69.08560679943425 66.73879102932494 0 0 0
363 1 1 72.07225286322618 69.35520786470094 66.66947608579461 0 0 0
317 1 1 73.84414944616577 69.10642039577574 66.0661935508949 0 0 0
817 2 1 74.03387192099422 69.40074180629067 66.90704173886012 0 0 0
816 2 1 74.40470202214895 69.92348215616205 66.38430028229436 0 0 0
704 2 1 67.65622281496351 70.85719352174573 66.44135718242818 0 0 0
943 2 1 68.97659017150167 70.17848398696681 66.25906355456685 0 0 0
942 2 1 68.94185081891526 71.02469792350153 66.47317552234367 0 0 0
443 1 1 69.69945801750295 70.35795742439205 66.50675324541118 0 0 0
160 1 1 71.05269194587243 70.2310110267838 66.05094513399317 0 0 0
661 2 1 71.62305800475444 70.40266760502745 66.90666184990289 0 0 0
161 1 1 71.93440809368646 70.564511780895 66.16324325925439 0 0 0
315 1 1 73.45588583245132 70.54619876902609 66.1525141350241 0 0 0
314 1 1 73.3048784631181 70.56693731081164 67.00056560011026 0 0 0
815 2 1 74.18073493250884 70.67573168447285 66.25875452056367 0 0 0
203 1 1 67.09024468092093 71.52872578063727 66.3097952378268 0 0 0
703 2 1 67.84343402231089 71.51562719809895 66.08920603738012 0 0 0
214 1 1 70.2594378446364 71.75348774143926 66.44641748011402 0 0 0
715 2 1 70.41178273531874 71.10272164139265 66.97029402226795 0 0 0
714 2 1 71.05337890404516 71.40839096155378 66.37559702269357 0 0 0
162 1 1 72.28400811971593 71.0534863943124 66.74580090325678 0 0 0
146 1 1 73.79381627868773 71.6181424626561 66.65776611311371 0 0 0
200 1 1 67.65573099169188 72.64146516218294 66.28762205828471 0 0 0
199 1 1 68.35768122441654 72.93268453380381 66.41397650478223 0 0 0
940 2 1 68.78082767500902 72.07832248809905 66.99292487259028 0 0 0
688 2 1 71.01936853849034 72.72973278387093 66.84569209113583 0 0 0
189 1 1 71.92225677187936 72.65224056113819 66.19251688267421 0 0 0
188 1 1 71.70735172560647 72.17219540716907 66.7579497558366 0 0 0
647 2 1 72.7814898724372 72.09314043161257 66.32178861194052 0 0 0
646 2 1 73.19961036149294 72.25442170021005 66.85217425639837 0 0 0
645 2 1 73.69569287522796 72.93384022623722 66.55659081913973 0 0 0
145 1 1 74.2529615476934 72.25589013288855 66.85621569785475 0 0 0
914 2 1 66.89844585503363 73.32689085987985 66.71807551825874 0 0 0
913 2 1 67.64788796516551 73.62098020905836 66.92917681042817 0 0 0
699 2 1 68.335064212165 73.7409203668544 66.17639815404287 0 0 0
198 1 1 69.1810873596076 73.09448449964053 66.39265909434282 0 0 0
698 2 1 69.04471315889371 73.89891138246446 66.26395345232179 0 0 0
197 1 1 69.90761970564378 73.12299255476393 66.27873829104506 0 0 0
697 2 1 69.76176075175636 73.82123912031072 66.32634715081298 0 0 0
196 1 1 70.17444134008431 73.35428628394025 67.02306335376123 0 0 0
689 2 1 71.26106520502287 73.04477762125697 66.10365969914888 0 0 0
190 1 1 72.41573994617971 73.26477317612843 66.07116684448167 0 0 0
191 1 1 72.44339018378797 73.33519012518192 66.7841683573072 0 0 0
695 2 1 70.9718510885411 74.44368770514153 66.99736157878034 0 0 0
696 2 1 70.31326417026263 74.09869588193764 66.57694218470401 0 0 0
691 2 1 72.45393081070245 74.047444237702 66.60385311788964 0 0 0
86 1 1 70.47520697711693 64.72775178384553 67.64062033613413 0 0 0
843 2 1 67.64304774494578 65.53583237228342 67.96974468341467 0 0 0
342 1 1 67.49678168722893 65.68004563663564 67.13939528110056 0 0 0
842 2 1 68.18446385185368 65.52807543921932 67.45247065770037 0 0 0
85 1 1 70.85412006035428 65.03702937845404 67.18521082502149 0 0 0
585 2 1 70.46128610722918 65.81253342259413 67.15882140382726 0 0 0
586 2 1 70.19201442361866 65.39922216164337 67.85028703999876 0 0 0
84 1 1 71.3328045181475 65.70011651639531 67.48709726859528 0 0 0
331 1 1 72.65321769056533 65.82660296818 67.4183705484929 0 0 0
345 1 1 66.10131370324574 66.62874154018601 67.83531223440792 0 0 0
344 1 1 66.60099477317505 66.18798250525606 67.59292419267429 0 0 0
343 1 1 67.49487262254524 66.28372419844517 67.68937577735721 0 0 0
841 2 1 68.31154912925349 66.34110153847878 67.32013807089078 0 0 0
581 2 1 69.5691990046877 66.57561948408373 67.76075458000953 0 0 0
583 2 1 70.8499992857708 66.57600523564334 67.37607328642864 0 0 0
582 2 1 70.32909190545746 66.92979709539777 67.76697232622934 0 0 0
831 2 1 72.11862838577582 66.15614872915224 67.7802134645618 0 0 0
832 2 1 72.43727172717935 66.66906305297655 67.26694043342279 0 0 0
321 1 1 73.8140809918493 66.9277887081189 67.97192914694041 0 0 0
352 1 1 66.63849098918175 67.10748899669781 67.1512903274028 0 0 0
851 2 1 66.22362333385182 67.84953062904674 67.64494896998042 0 0 0
351 1 1 66.93892200150316 67.49053564802793 67.89148353086927 0 0 0
874 2 1 67.94986232707815 67.8710099831076 67.35767804041207 0 0 0
372 1 1 69.49499010899336 67.6282906138495 67.8993724362188 0 0 0
872 2 1 69.36396545573105 67.45868376120443 67.13099648278421 0 0 0
871 2 1 69.9766651721452 67.95477858735794 67.14028703693819 0 0 0
870 2 1 70.69550112201583 67.73226187438242 67.41774231595112 0 0 0
869 2 1 71.27618729711351 67.45025173861592 67.74109405796169 0 0 0
833 2 1 72.90326416992545 67.29707686346015 67.28459132745125 0 0 0
320 1 1 74.06377480627462 67.23854458821172 67.21252371109038 0 0 0
820 2 1 74.48912466012939 67.48217369386661 67.68272895666244 0 0 0
881 2 1 65.40326944644367 68.52656034542574 67.14167822400256 0 0 0
882 2 1 65.38832223153261 68.04812893334267 67.74526800279557 0 0 0
382 1 1 65.51038366506522 68.72934685677306 68.006605131653 0 0 0
375 1 1 67.47646855096875 68.70732733890657 67.47893374672731 0 0 0
373 1 1 68.85226935296566 68.20036333623433 67.51100466027886 0 0 0
374 1 1 68.19238815082953 68.57690546623115 67.76479877062431 0 0 0
371 1 1 69.77667528573043 68.37560809236943 67.80514203819735 0 0 0
365 1 1 71.89348204479691 68.5546791500525 67.88753464067875 0 0 0
864 2 1 72.58110036779361 68.92967679473898 67.52456176168774 0 0 0
865 2 1 72.4291234872937 68.12467588897111 67.51285378979233 0 0 0
311 1 1 73.66887726107606 68.14967230695433 67.94105649697052 0 0 0
312 1 1 73.44793226831041 68.86934989406735 67.66798565026644 0 0 0
819 2 1 74.6245664997743 68.08418452771508 67.21770368855576 0 0 0
810 2 1 74.48832238649233 68.76532177856339 67.95116361656375 0 0 0
381 1 1 65.9691772304125 69.19528744434261 67.45607508224634 0 0 0
948 2 1 67.50916105035093 69.9983583821349 67.57374520142508 0 0 0
947 2 1 68.25479318538868 69.71727386556458 67.38258805612364 0 0 0
946 2 1 68.76711679083853 69.41877786278444 67.87773865314193 0 0 0
945 2 1 69.28003947985133 69.20417716244035 67.40042767595372 0 0 0
445 1 1 69.69627706674379 69.82704012849487 67.86015337074505 0 0 0
364 1 1 71.81799337000564 69.19604149241195 67.2718876439822 0 0 0
219 1 1 71.05666191139771 69.45371494699188 68.01875895203851 0 0 0
313 1 1 73.2730090851781 69.77574274446155 67.38042112359992 0 0 0
813 2 1 73.84066756677413 69.98483045323181 67.67582297362051 0 0 0
952 2 1 65.22138375808231 70.99162247016278 67.5686542616744 0 0 0
950 2 1 66.46501187340404 70.49572618630349 67.39645815849306 0 0 0
449 1 1 67.65030663850125 70.851430968363 67.53933095767806 0 0 0
949 2 1 67.0910313112837 70.44872310189385 67.17157863538816 0 0 0
448 1 1 68.13063650944764 70.47699444072312 67.83930095902706 0 0 0
447 1 1 68.92169989529444 70.22576972215944 67.54264134402796 0 0 0
444 1 1 69.91607000347132 70.12472177593018 67.13717274361251 0 0 0
442 1 1 69.39100728279489 70.88572254094645 67.18115256928482 0 0 0
218 1 1 71.0302185525904 70.18500271958584 67.80107317407943 0 0 0
663 2 1 72.55523666214769 70.72609972827793 67.61669381007061 0 0 0
814 2 1 74.07460026984161 70.58377351578605 67.12269834274218 0 0 0
625 2 1 74.35068938295898 70.90719565710606 67.9416578613582 0 0 0
125 1 1 75.14073746313495 70.88528518300804 67.8689199831244 0 0 0
452 1 1 65.6697467310686 71.40172986274389 67.08936196305632 0 0 0
953 2 1 65.08240459035167 71.66680921768442 67.7787622476329 0 0 0
451 1 1 66.507487013865 71.65389900623461 67.10026074384324 0 0 0
951 2 1 66.1178412595332 71.1297316511712 67.65989910721919 0 0 0
450 1 1 67.04202795381624 71.17870357275949 67.53893804230728 0 0 0
941 2 1 68.61319402580946 71.33977377355664 67.13401946725973 0 0 0
441 1 1 68.83925053646554 71.25760304989069 67.81480734228501 0 0 0
215 1 1 70.14168543488141 71.7492080725193 67.31233388348139 0 0 0
216 1 1 70.42310887784691 71.31597204643325 67.96043545179286 0 0 0
716 2 1 70.99803726625973 71.20823314705382 67.41763729899371 0 0 0
662 2 1 71.91065910139487 71.03507404357244 67.09884254665369 0 0 0
163 1 1 72.9624532554778 71.41760839469423 67.23636283572023 0 0 0
164 1 1 73.0035781132023 71.40131064490528 67.95486557029996 0 0 0
453 1 1 65.734006884432 72.03350265068524 67.49347293017105 0 0 0
415 1 1 66.49360654960446 72.70550961827631 67.47314956594586 0 0 0
414 1 1 67.29126060034763 72.75685889948733 67.24166724062707 0 0 0
440 1 1 69.02025186399905 72.1843009177196 67.94409299944114 0 0 0
939 2 1 69.31325119124088 72.70927037882817 67.1814704104834 0 0 0
938 2 1 69.93298712702787 72.55098107958288 67.82794605792772 0 0 0
439 1 1 69.05334803711642 72.97240455404257 67.88258837038616 0 0 0
937 2 1 70.73854872234322 72.38473492358597 67.83403779935433 0 0 0
187 1 1 72.02061293002832 72.21299263833272 67.58792032492056 0 0 0
687 2 1 71.53966915496075 72.80209902506509 67.45713348314192 0 0 0
186 1 1 72.3650491323504 72.73048467205952 68.0061953574372 0 0 0
644 2 1 73.81532041522475 72.84553573346786 67.34974233916617 0 0 0
144 1 1 74.41916018880512 72.38145702920433 67.57408627342714 0 0 0
915 2 1 66.22597480818386 73.23375174408558 67.27055445663231 0 0 0
916 2 1 66.40237899067256 73.50761951497473 67.88504875892998 0 0 0
413 1 1 67.91565043765866 73.20745360694467 67.54608477204994 0 0 0
412 1 1 68.4447463566836 73.83745682049728 67.4350431484634 0 0 0
438 1 1 69.78116081169047 73.27542010427933 68.00493811706394 0 0 0
195 1 1 70.9519353445799 73.66408297610484 67.18973295212403 0 0 0
194 1 1 71.35326817046557 73.91730501293745 67.70832387585946 0 0 0
193 1 1 72.04192230962984 73.63255260620944 67.60592618171505 0 0 0
192 1 1 72.67309830515252 73.5454582905751 67.62202550662619 0 0 0
912 2 1 67.9613961630234 74.2720991577983 67.06689108739081 0 0 0
911 2 1 68.19775706309476 74.71201583583486 67.67460700852793 0 0 0
30 1 1 69.83420334060881 74.75101078269122 67.47096359461153 0 0 0
530 2 1 69.50853432709158 74.19502982267059 67.87536642577062 0 0 0
31 1 1 70.55688662030872 74.71134484004016 67.8481752239072 0 0 0
694 2 1 71.50122289434 74.59489042959244 67.58616681766185 0 0 0
692 2 1 72.88360226456516 74.18469079625093 67.27833732445798 0 0 0
693 2 1 72.22183939168495 74.39688650198066 67.52246913506067 0 0 0
577 2 1 68.3630821772369 64.94642170704812 68.98025398108132 0 0 0
87 1 1 70.94272621507837 64.7941510368169 68.29818277130055 0 0 0
844 2 1 66.88330492473601 65.63485885081062 68.15671746266939 0 0 0
579 2 1 68.76315501760133 65.78452356304268 68.41547747704965 0 0 0
578 2 1 69.15019648040632 65.11390619382813 68.59175706463215 0 0 0
587 2 1 70.47011476703877 65.42351645556602 68.49513299551151 0 0 0
83 1 1 71.07844047661173 66.01176279868312 68.05692006051748 0 0 0
330 1 1 72.7008595664742 65.5949746330272 68.11490443559639 0 0 0
329 1 1 72.04383243622027 65.64954545313336 68.61258617587288 0 0 0
323 1 1 73.51924505795355 65.77380850952119 68.99522634840771 0 0 0
846 2 1 65.60539845185981 66.64483807665694 68.7400459670654 0 0 0
845 2 1 66.1114959657661 66.09107045671462 68.39449619839623 0 0 0
347 1 1 66.67265678611841 66.71531623213694 68.68330582621817 0 0 0
580 2 1 68.98720730559802 66.46871605152117 68.0877603197177 0 0 0
80 1 1 69.35301586995539 66.67598417453362 68.67979472833196 0 0 0
82 1 1 70.72552290951158 66.59948378455641 68.47322578483649 0 0 0
81 1 1 70.09735214042355 66.3944565294109 68.50021267865628 0 0 0
829 2 1 71.95939880744933 66.35896539002455 68.87104350391986 0 0 0
830 2 1 72.65829909818353 66.3536664434415 68.28023707726388 0 0 0
322 1 1 73.5407370382891 66.11635948135469 68.25421135190567 0 0 0
821 2 1 74.53443868690319 66.99944644775995 68.39260315500798 0 0 0
822 2 1 74.1961276597222 66.36052539720512 68.68955759425732 0 0 0
346 1 1 65.98790451387897 67.1855773990065 68.28305263316048 0 0 0
883 2 1 65.02723500972445 67.99955981225433 68.61525706761157 0 0 0
849 2 1 66.82821875360628 67.90688204079198 68.78033936475371 0 0 0
350 1 1 67.32348663492326 67.98687670363476 68.13047468570542 0 0 0
349 1 1 67.45594565685153 67.44420592529451 68.67335901519674 0 0 0
248 1 1 68.45129896771672 67.62248763973109 69.01995276018611 0 0 0
247 1 1 69.19071612534346 67.93232575424206 68.78748616065603 0 0 0
370 1 1 70.36082175799933 67.90699693359905 68.132837134617 0 0 0
868 2 1 71.79070579065915 67.07376581927856 68.21309527352989 0 0 0
368 1 1 71.18301145995972 67.56854072643722 68.68670074874827 0 0 0
867 2 1 72.4767578334221 67.19809584837891 68.6640017238003 0 0 0
866 2 1 72.67629469953131 67.98428718776601 68.32097959839021 0 0 0
310 1 1 74.38306448874805 68.0085240941875 68.4358211650179 0 0 0
309 1 1 75.05913074328457 67.9471274717329 68.15091284978838 0 0 0
308 1 1 75.26679111778701 68.00396994015868 68.7899572083382 0 0 0
383 1 1 64.88031815022337 68.77206688477135 68.3761922747692 0 0 0
850 2 1 66.63135371422142 68.35087061728059 68.07929052820215 0 0 0
500 1 1 66.45057334804969 68.92774772580412 68.83784838276607 0 0 0
747 2 1 68.53807405261782 68.46875735117429 68.51873375500722 0 0 0
746 2 1 69.20934033854843 68.79713591883977 68.73070952454009 0 0 0
246 1 1 69.83924187944432 68.24936709916201 68.80614576310981 0 0 0
369 1 1 71.0502636087524 68.18296515621337 68.09747798209115 0 0 0
366 1 1 72.22813297977686 68.58027157668494 68.72551121606384 0 0 0
811 2 1 73.83533716773634 68.8213846894213 68.51694671687513 0 0 0
809 2 1 75.35456776606777 68.74320502611671 68.1284362010251 0 0 0
808 2 1 75.48672956056663 68.77236991756412 68.95291293718464 0 0 0
499 1 1 67.10939192259237 69.25729385827809 68.42181180235245 0 0 0
498 1 1 67.28895582121145 69.81207603930129 68.70930008460972 0 0 0
220 1 1 70.92196532815962 69.1701557682139 68.62388881505987 0 0 0
719 2 1 71.98149802958865 69.65485751355526 68.16627107765274 0 0 0
720 2 1 71.65961034595313 69.35007098129314 68.75832479856105 0 0 0
812 2 1 73.85446501592683 69.39071878292847 68.17027181275391 0 0 0
623 2 1 74.30966125147435 69.73534576673872 68.95909360354625 0 0 0
123 1 1 75.16378372701435 69.75389234004548 68.95679978613023 0 0 0
889 2 1 65.67115673028896 70.28069788649432 68.86382979630515 0 0 0
389 1 1 65.1057958063025 70.90993318756624 68.91869262700406 0 0 0
497 1 1 67.3586614065315 70.67900975342833 68.57984951754572 0 0 0
446 1 1 69.02736319901473 70.03258142373129 68.31241700636595 0 0 0
217 1 1 70.60736490229299 70.71597400494939 68.13886736752792 0 0 0
718 2 1 71.77952676450398 70.40715428421323 68.11172396002893 0 0 0
664 2 1 72.45532111067745 70.97931824557926 68.38190578348677 0 0 0
665 2 1 73.17257392308643 70.86856954213383 68.89535273139892 0 0 0
624 2 1 74.48904615497398 70.41136951163782 68.60396787162168 0 0 0
124 1 1 75.27942004283304 70.20253286737366 68.3596746325022 0 0 0
891 2 1 66.34642265527131 71.44311794676396 68.8106482265711 0 0 0
892 2 1 67.04364424729458 71.69980550857336 68.65337566261492 0 0 0
433 1 1 69.60140101044061 71.49743272093193 68.69768297160631 0 0 0
936 2 1 71.01522565375203 71.96084923299031 68.47964153019109 0 0 0
717 2 1 71.37513742142187 71.14423890522424 68.10419243983456 0 0 0
165 1 1 73.56158867736521 71.24010661035797 68.63381293312605 0 0 0
626 2 1 74.51188585127963 71.68164154520962 68.25646569180475 0 0 0
126 1 1 75.24321472916272 71.61527403553268 68.27590737885015 0 0 0
127 1 1 75.2807553492954 72.012109441312 68.96523629933411 0 0 0
954 2 1 65.1887787154996 72.06905270636362 68.32103651360102 0 0 0
455 1 1 65.91364553207798 72.81290657236302 68.82530512902242 0 0 0
955 2 1 65.40303761826318 72.79197821306052 68.16180592172823 0 0 0
956 2 1 65.09311002369874 72.67604006554063 68.96092487236251 0 0 0
454 1 1 66.03807273884946 72.18955821973174 68.19464149996239 0 0 0
416 1 1 66.77372338991216 72.86362124834598 68.10194885726094 0 0 0
893 2 1 67.49646746976083 72.37649322735209 68.49137835551157 0 0 0
894 2 1 67.97084983827239 73.01393261470258 68.61875154256143 0 0 0
436 1 1 70.92627066325193 72.76368580571354 68.71217953628774 0 0 0
686 2 1 71.69604064478078 72.94150866879878 68.14934103814645 0 0 0
685 2 1 71.81780573305295 72.33635910054808 68.79804488566258 0 0 0
185 1 1 72.63015321424297 72.43759964901616 68.7055245598127 0 0 0
643 2 1 73.68810587117319 72.32389182315254 68.14178873574211 0 0 0
143 1 1 74.275108676038 72.83751779415539 68.24951100052299 0 0 0
128 1 1 74.93614672593925 72.77657661448859 68.97002227729419 0 0 0
417 1 1 67.01142282738141 73.60063161007525 68.58225518265539 0 0 0
917 2 1 66.30907036732007 74.0232354325681 68.5456353396014 0 0 0
895 2 1 68.65400978509162 73.63307933173546 68.89933347061492 0 0 0
437 1 1 70.6059987669074 73.15338041968211 68.05595086320548 0 0 0
640 2 1 72.88909691882104 73.74825133564002 68.95317717264828 0 0 0
641 2 1 73.52457203839383 73.26198874315993 68.922237766829 0 0 0
642 2 1 73.36778314151222 73.05762439394199 68.22898392331845 0 0 0
142 1 1 73.8923922591163 73.58414195114021 68.09897470458903 0 0 0
141 1 1 74.18239065869017 73.71860688179167 68.81177094636034 0 0 0
411 1 1 67.9185057001566 74.03401444847918 68.1019369693927 0 0 0
410 1 1 67.54408267871034 74.75345631905249 68.15403419844279 0 0 0
409 1 1 67.58163147338756 74.99571343558684 68.94272047540046 0 0 0
909 2 1 68.21568497151785 74.52405940114471 68.96619891316182 0 0 0
529 2 1 69.3712911032571 74.83453241402563 68.46518150077426 0 0 0
531 2 1 70.12719457574815 74.32990035710188 68.39083070595989 0 0 0
532 2 1 70.90022892778187 74.36480012027502 68.64488765017849 0 0 0
533 2 1 71.59095547371139 74.57410674669607 68.87576955409031 0 0 0
534 2 1 72.3667056410539 74.68603633265249 68.92429458480001 0 0 0
140 1 1 73.57415404619425 74.23221400927433 68.9008717468518 0 0 0
910 2 1 68.23026116284161 75.16078653995498 68.3646041675406 0 0 0
29 1 1 69.90494024908178 75.30360017087769 68.06881391019776 0 0 0
528 2 1 69.39752080729758 75.5493620515034 68.81390067051689 0 0 0
28 1 1 70.1959847407791 75.36692564573468 68.74720110104325 0 0 0
32 1 1 71.07385720464598 75.13042204876143 68.31481071905246 0 0 0
33 1 1 71.85830633517368 75.3360434105255 68.55797529073222 0 0 0
90 1 1 69.71039992185545 64.31037850977982 69.90670116783464 0 0 0
89 1 1 70.55617230788971 64.32551453875894 69.75840383188063 0 0 0
88 1 1 71.03163107735102 64.40768783296394 69.20283908984312 0 0 0
574 2 1 66.51872616027333 65.46171217626313 69.73782549429076 0 0 0
76 1 1 67.8609024383221 65.2086386230407 69.83291221952668 0 0 0
576 2 1 67.65893438188836 65.40293689982316 69.04009673261885 0 0 0
575 2 1 67.06956925028427 65.44331035124229 69.33141646707202 0 0 0
75 1 1 67.66069981676662 65.91293712859252 69.78005494566169 0 0 0
77 1 1 68.64216426194783 65.41510016783404 69.55223797217322 0 0 0
78 1 1 69.52146846995487 65.37383587799664 69.25278622033127 0 0 0
589 2 1 70.41943783550965 65.03671113565139 69.98686670969644 0 0 0
588 2 1 70.63297903279204 65.12161956388718 69.25225784611119 0 0 0
327 1 1 71.20949436040002 65.54362930347045 69.7587450962908 0 0 0
328 1 1 71.24931371496446 65.83976541804978 69.08031906252008 0 0 0
326 1 1 71.83785246371943 65.25795029923141 70.01474111636779 0 0 0
825 2 1 72.69946707452087 65.85862693519637 69.93136821239756 0 0 0
325 1 1 72.44238069741867 65.3145977132701 69.57300201920675 0 0 0
324 1 1 73.08028276473051 65.23108200166716 69.32590135094232 0 0 0
824 2 1 73.5800937973244 65.58783572936058 69.96415806000428 0 0 0
823 2 1 74.05094312829324 65.99264515793496 69.44849140886419 0 0 0
847 2 1 66.20594022278944 66.87141938125664 69.25704744214787 0 0 0
79 1 1 69.3365294436955 66.0657877219089 69.08911884957439 0 0 0
255 1 1 70.205604245507 66.6824939089419 69.42416408671774 0 0 0
828 2 1 71.7019564941157 66.42684676426315 69.43759144055512 0 0 0
767 2 1 73.79291638734402 66.93801484945807 69.51811718564555 0 0 0
268 1 1 74.764557530209 66.8682921484387 69.72558729967214 0 0 0
848 2 1 66.54499290665164 67.49713563465063 69.54352154303294 0 0 0
348 1 1 67.18290472323258 67.06307695613279 69.2494535717866 0 0 0
249 1 1 68.55700672005834 67.35111598013103 69.76842173868565 0 0 0
256 1 1 70.2346194834769 67.38625357874794 69.10683156311208 0 0 0
756 2 1 70.24789300129206 67.59646589746762 69.94929285491067 0 0 0
257 1 1 71.07535851780058 67.48928000109088 69.56988807030925 0 0 0
367 1 1 72.0646215098095 67.80412526435562 69.07368493872444 0 0 0
765 2 1 72.93071941729445 68.01969973067627 69.92954130284919 0 0 0
766 2 1 73.27689909015918 67.65405410348174 69.28438015825843 0 0 0
267 1 1 74.25788500307699 67.57605599240168 69.30262868560641 0 0 0
307 1 1 75.19690838157189 67.75162394918189 69.58455799082415 0 0 0
884 2 1 64.94625233322557 68.22215869608286 69.48078332691378 0 0 0
384 1 1 65.22581427674425 68.98729656275084 69.2715131002986 0 0 0
501 2 1 66.0140973198737 68.82504679425173 69.78671866304424 0 0 0
1000 2 1 66.76817955377352 68.56420453155206 69.4923631011648 0 0 0
999 2 1 67.40582168587525 69.02625885320869 69.22759669405322 0 0 0
748 2 1 68.51979941789881 68.27492307173652 69.40158719580643 0 0 0
745 2 1 69.32688173300288 68.96236311851672 69.49438691481886 0 0 0
245 1 1 70.10315417493798 68.86099339970437 69.2514797737148 0 0 0
266 1 1 73.77963057089964 68.05785727556761 69.6200884142871 0 0 0
265 1 1 73.28552190466797 68.60660687818218 69.3893130168835 0 0 0
807 2 1 75.34071031077568 68.52952047894509 69.7406443807958 0 0 0
887 2 1 64.3024986737565 69.59603011993985 69.57104690562922 0 0 0
888 2 1 65.0172224981151 69.98834253965921 69.18994088706854 0 0 0
385 1 1 65.18388874516475 69.30186790612007 69.93153421941847 0 0 0
1 1 1 66.15605320869373 69.31068139849994 69.3351050192904 0 0 0
2 1 1 66.7197887477595 69.72302943605546 69.96003622702577 0 0 0
998 2 1 67.87482456451298 69.61616047993277 69.14636989949798 0 0 0
430 1 1 68.74616093732492 69.80179040732715 69.98952895976339 0 0 0
244 1 1 70.17593093068865 69.34715633465092 69.81570098449608 0 0 0
221 1 1 70.90411890118914 69.90194027908515 69.04256004667216 0 0 0
721 2 1 71.5205901183919 69.62986954963318 69.43075962334811 0 0 0
264 1 1 73.13390346038994 69.15833858745064 69.8759986697489 0 0 0
621 2 1 75.10147138894702 69.71361485491697 70.01612598355669 0 0 0
388 1 1 64.48477688325848 70.56557704366968 69.3985999507052 0 0 0