LAMMPS data file via write_data, version 2 Aug 2023, timestep = 15000000, units = lj

2000 atoms
3 atom types
0 bonds
1 bond types
0 ellipsoids

0 10.772173 xlo xhi
0 10.772173 ylo yhi
0 10.772173 zlo zhi

Masses

1 0
2 2.449366307638303e-312
3 4.641420771530454e-310

Bond Coeffs # harmonic

1 100 1.4

Atoms # hybrid

262 1 1.7855581978013253 0.11620616901830844 0.018732093153585067 0 1 262 -5 -12 -2
1215 3 0.8215559472658944 0.9651341106695694 1.9218110123259569 0 0.01 215 -1 -14 -10
1858 3 0.2840206694748919 0.8021077170388965 0.0591624892127242 0 0.01 858 -4 -14 -5
858 1 0.2840206796539679 0.8021077170603886 0.05916249014864847 0 1 858 -4 -14 -5
215 1 0.8215559525042126 0.9651341098290536 1.921811000273009 0 1 215 -1 -14 -10
1074 3 0.5081658314260197 1.961792964894234 0.9931437732599794 0 0.01 74 2 -7 3
299 1 0.3268426497531512 1.250860124900897 1.4495426343378506 0 1 299 0 -1 7
1299 3 0.3268426444143792 1.2508601311422096 1.4495426255314015 0 0.01 299 0 -1 7
1469 3 1.6546479339049462 1.67997266303031 0.05275119671875944 0 0.01 469 0 -3 -20
469 1 1.6546479452075693 1.6799726687624912 0.05275119319841618 0 1 469 0 -3 -20
74 1 0.5081658307612977 1.9617929548175825 0.9931437714518773 0 1 74 2 -7 3
305 1 1.6527588658915395 2.177434182542344 2.2782846058305437 0 1 305 4 -3 -7
254 1 1.0151815078842532 1.2610455131217975 0.9339227164409188 0 1 254 2 -11 -19
1254 3 1.0151815024414013 1.2610455208953943 0.933922715063773 0 0.01 254 2 -11 -19
383 1 1.4684067113813413 2.3707161230941742 0.045367035823804844 0 1 383 -3 -3 1
897 1 1.4305673753438457 0.8257478908903864 1.624256346801078 0 1 897 -7 4 2
1897 3 1.4305673713297273 0.8257478939018157 1.6242563436091921 0 0.01 897 -7 4 2
1872 3 0.5349993011781865 0.22169473390161493 1.8272737192914337 0 0.01 872 6 4 7
872 1 0.5349993105421291 0.22169473061719666 1.827273714598973 0 1 872 6 4 7
1389 3 1.6682538550618005 0.6767879147652193 2.330645649791415 0 0.01 389 -1 12 5
1383 3 1.468406701203209 2.370716121161517 0.04536704348869104 0 0.01 383 -3 -3 1
389 1 1.6682538577920727 0.6767879234117706 2.3306456418653303 0 1 389 -1 12 5
1907 3 0.8078850057103266 1.7949072586707333 1.8007778734673061 0 0.01 907 4 -12 8
1542 3 2.0352409932119597 1.6137599117147732 2.285906149254917 0 0.01 542 2 8 -6
907 1 0.8078850127364586 1.7949072543100597 1.8007778722723136 0 1 907 4 -12 8
1980 3 0.20068908927418078 0.09189317109049316 1.183288719375748 0 0.01 980 -5 -26 -13
460 1 1.4419931976107472 2.384013801268724 1.1001843619995155 0 1 460 1 -9 14
980 1 0.20068909965733456 0.09189316830378064 1.183288723573886 0 1 980 -5 -26 -13
1460 3 1.4419931865717313 2.384013797327037 1.1001843608405437 0 0.01 460 1 -9 14
325 1 0.8099945115162381 0.5027781479653111 0.3777389147435525 0 1 325 -3 -23 13
1325 3 0.8099945094305924 0.5027781411901296 0.3777389153065815 0 0.01 325 -3 -23 13
1845 3 1.0253275320132738 1.617250114317854 2.3999535842976876 0 0.01 845 4 -3 -4
845 1 1.0253275401671824 1.6172501123984737 2.399953594699118 0 1 845 4 -3 -4
542 1 2.0352409978677564 1.613759904438725 2.285906142209161 0 1 542 2 8 -6
1262 3 1.785558191811549 0.11620616926855011 0.0187320948358304 0 0.01 262 -5 -12 -2
1885 3 0.752845358886568 0.46553520602561455 1.1166733185849986 0 0.01 885 4 -1 13
885 1 0.752845354721955 0.46553520730372766 1.1166733087527845 0 1 885 4 -1 13
1305 3 1.6527588597859395 2.1774341841334484 2.2782846177326457 0 0.01 305 4 -3 -7
482 1 0.15957514443682555 1.6699142228081727 2.133576717295894 0 1 482 -3 11 2
1482 3 0.1595751348428175 1.669914222810319 2.133576717748664 0 0.01 482 -3 11 2
514 1 0.6988291954803534 1.8822578722221075 0.2606252967630697 0 1 514 -1 13 -13
1514 3 0.698829197176208 1.8822578809360788 0.26062530062322353 0 0.01 514 -1 13 -13
1719 3 1.9970986512421633 0.9707107613845914 0.05093209340847871 0 0.01 719 6 11 9
719 1 1.997098654192411 0.9707107646348726 0.050932104129566724 0 1 719 6 11 9
801 1 1.801912445271398 4.011275888143548 0.4948988591424668 0 1 801 1 5 0
1801 3 1.8019124364773433 4.011275890929731 0.4948988520960632 0 0.01 801 1 5 0
136 1 1.101356014524711 3.175398665718004 0.81674963538192 0 1 136 -1 17 27
1833 3 0.7372604458814421 2.6688738513544616 1.2802746295402203 0 0.01 833 3 -3 -13
4 1 0.4871643869543085 3.990278309385672 1.0654365701020234 0 1 4 0 14 1
1322 3 1.9296238602145088 2.6178761385022953 1.7197997553099424 0 0.01 322 2 1 6
833 1 0.7372604599174274 2.6688738490167996 1.2802746320909977 0 1 833 3 -3 -13
216 1 1.0183485938595942 3.0495684347034544 0.036691369945343215 0 1 216 0 13 7
1216 3 1.0183485856882695 3.0495684401908103 0.036691366957307514 0 0.01 216 0 13 7
1069 3 0.03296127885121133 4.349628752481341 0.533162070084286 0 0.01 69 -3 -8 6
1612 3 0.5726191872746405 2.644109383423829 0.6490861269897368 0 0.01 612 2 14 -25
69 1 0.03296128411490186 4.349628751081982 0.5331620623025536 0 1 69 -3 -8 6
1136 3 1.1013560084989862 3.175398662590647 0.8167496392665389 0 0.01 136 -1 17 27
612 1 0.5726191979458992 2.644109389619254 0.6490861306436302 0 1 612 2 14 -25
322 1 1.9296238642651447 2.617876136709065 1.719799752942101 0 1 322 2 1 6
1100 3 2.110017907659558 3.3072819386605916 1.484505549687381 0 0.01 100 -1 -9 12
100 1 2.110017916332505 3.3072819319420743 1.4845055471375699 0 1 100 -1 -9 12
1171 3 0.8273781855161532 4.636177080611967 1.2279241258738116 0 0.01 171 -4 20 -3
1004 3 0.487164387758346 3.990278315666091 1.0654365635278418 0 0.01 4 0 14 1
657 1 0.5226376304367385 3.277020738895727 2.139048116418116 0 1 657 0 24 3
1657 3 0.5226376267796875 3.2770207278941386 2.1390481125787133 0 0.01 657 0 24 3
208 1 1.4007397489670332 4.679820636947152 0.38377408841384175 0 1 208 2 3 -11
360 1 0.24969750754670528 3.2336455970741143 0.5154899914748172 0 1 360 -6 -22 -32
380 1 1.526459408204026 3.3042839477018067 1.8311321982211595 0 1 380 5 0 -2
1999 3 1.3823507059110782 2.841701472614886 2.309793090110773 0 0.01 999 6 27 -29
999 1 1.3823507170009448 2.8417014742946383 2.309793093170726 0 1 999 6 27 -29
1349 3 1.2112706146607668 4.220538083343134 2.0045448303593125 0 0.01 349 0 -18 16
1380 3 1.526459402323865 3.304283956057391 1.8311322076268988 0 0.01 380 5 0 -2
1517 3 0.4002957078056799 3.9269626486454987 2.115177891930419 0 0.01 517 -3 -13 -3
427 1 1.104796677774521 3.999635667605635 0.3338947141521307 0 1 427 1 7 11
1427 3 1.1047966671086993 3.999635669692022 0.33389471217799127 0 0.01 427 1 7 11
517 1 0.40029571494398525 3.9269626489648566 2.1151778875620555 0 1 517 -3 -13 -3
1820 3 0.11815529227814217 3.5342657599793608 1.6687378345260913 0 0.01 820 3 -15 17
587 1 1.5529419588163036 4.062955645753287 1.3181890326664556 0 1 587 -5 8 7
171 1 0.8273781904915255 4.636177071255256 1.2279241207145837 0 1 171 -4 20 -3
1587 3 1.552941953507353 4.062955655312905 1.3181890354447192 0 0.01 587 -5 8 7
820 1 0.11815528931847706 3.534265768220738 1.6687378321302426 0 1 820 3 -15 17
1208 3 1.4007397414818854 4.679820641627458 0.38377408351513764 0 0.01 208 2 3 -11
349 1 1.2112706221564358 4.22053808201356 2.0045448377665513 0 1 349 0 -18 16
1360 3 0.24969751211592658 3.233645592004427 0.5154899923117724 0 0.01 360 -6 -22 -32
673 1 0.47079277353549037 4.3089500205645965 0.01939701381708936 0 1 673 -4 7 -1
1673 3 0.4707927720120427 4.308950027755936 0.019397002827377108 0 0.01 673 -4 7 -1
865 1 1.095063628164167 1.8790417481812498 4.408778442249828 0 1 865 2 -24 2
1865 3 1.0950636182971094 1.8790417511814446 4.408778445949831 0 0.01 865 2 -24 2
1685 3 0.11110504160635311 0.8527319605755653 4.014383778116138 0 0.01 685 -1 1 6
125 1 0.917285516916706 0.45126690842484063 4.1022281783229415 0 1 125 1 -12 7
1125 3 0.9172855152891275 0.45126691179692097 4.102228187132031 0 0.01 125 1 -12 7
1510 3 0.1502392782814824 0.4757348015084508 4.824933468863064 0 0.01 510 -4 -30 19
510 1 0.1502392805147962 0.47573479892394216 4.824933459768965 0 1 510 -4 -30 19
1480 3 0.5086987635393523 2.1698372730047355 2.51623667835885 0 0.01 480 -3 1 5
480 1 0.5086987644984832 2.1698372692319685 2.5162366759450774 0 1 480 -3 1 5
1153 3 0.48538353791576255 0.06810952454830123 2.8269686325106793 0 0.01 153 0 18 6
1827 3 0.37263908846457033 1.5785875791507205 4.154744613635964 0 0.01 827 3 6 8
153 1 0.48538352890692704 0.0681095184536249 2.826968623851246 0 1 153 0 18 6
979 1 1.7947761537378073 0.0026282815999046903 3.975896359702519 0 1 979 1 15 -7
1524 3 1.6351939774090438 1.4211734617313676 4.158664868429016 0 0.01 524 -1 3 0
1979 3 1.7947761443884729 0.0026282899181213127 3.975896355550743 0 0.01 979 1 15 -7
827 1 0.3726390908602147 1.5785875805757776 4.154744610429704 0 1 827 3 6 8
1417 3 0.378078381088943 0.7397926153113628 2.8767122934753315 0 0.01 417 -1 -7 -18
29 1 1.3669640920927408 1.922349617642771 2.98146704787456 0 1 29 1 26 -2
1029 3 1.3669640870729336 1.9223496299455847 2.981467048706631 0 0.01 29 1 26 -2
1000 1 1.0910797391282034 0.7035181328811166 3.335375373802618 0 1 1000 6 4 9
236 1 1.9143089550737 2.2769940475209487 3.228797940351118 0 1 236 6 15 -1
1236 3 1.9143089471266657 2.2769940514874927 3.228797931704663 0 0.01 236 6 15 -1
115 1 0.8093008832100218 1.9077083657029545 3.377875718460212 0 1 115 2 21 8
1115 3 0.8093008796489893 1.9077083638790284 3.3778757196777263 0 0.01 115 2 21 8
1041 3 1.4531280647660636 0.7104468097750833 4.424363109511896 0 0.01 41 0 1 1
411 1 0.8203371364496741 1.1720063057581775 4.566692671910689 0 1 411 4 1 -4
1411 3 0.8203371404749797 1.1720063117551986 4.566692662992581 0 0.01 411 4 1 -4
519 1 1.9688785238634832 2.244190445554476 4.326765198421094 0 1 519 -4 -18 4
524 1 1.635193986689723 1.4211734649544845 4.1586648721128325 0 1 524 -1 3 0
1519 3 1.9688785141967675 2.244190440648658 4.326765201457138 0 0.01 519 -4 -18 4
685 1 0.11110503446783135 0.8527319549342431 4.014383786656453 0 1 685 -1 1 6
41 1 1.4531280684202954 0.7104468096463069 4.424363108111894 0 1 41 0 1 1
417 1 0.37807838400136046 0.7397926207767767 2.8767122964261054 0 1 417 -1 -7 -18
2000 3 1.0910797399220231 0.7035181270522969 3.335375371536626 0 0.01 1000 6 4 9
116 1 0.1603157295594784 2.0762792275084276 3.3996256806749052 0 1 116 -3 -3 2
811 1 0.515456109399677 1.3116511718873114 3.1958603958259566 0 1 811 0 -4 0
1811 3 0.5154561168993245 1.3116511773477635 3.195860389207893 0 0.01 811 0 -4 0
1116 3 0.16031572976786893 2.0762792335320897 3.399625672671651 0 0.01 116 -3 -3 2
1347 3 1.1563547344768192 0.32492629665423084 2.55649919843951 0 0.01 347 1 8 -4
347 1 1.156354736991625 0.3249262946400194 2.5564991910531236 0 1 347 1 8 -4
1484 3 0.027995138215840473 3.24477254422386 4.586918348408252 0 0.01 484 0 -11 -3
644 1 1.0579082843721053 3.450665242768865 3.9228985802045755 0 1 644 -1 4 -22
1929 3 0.4467315885661178 2.640807921592116 4.153519280521939 0 0.01 929 -2 17 1
929 1 0.4467315786875602 2.640807931426269 4.153519279429447 0 1 929 -2 17 1
484 1 0.02799513370106875 3.2447725397412595 4.586918354615758 0 1 484 0 -11 -3
1644 3 1.0579082879218946 3.450665238620547 3.9228985733598365 0 0.01 644 -1 4 -22
1605 3 0.9434456824644978 4.147255936537367 4.52699037499613 0 0.01 605 2 12 -17
605 1 0.9434456804884005 4.147255934805999 4.526990382111424 0 1 605 2 12 -17
1280 3 1.1936697526988471 3.5687165883086194 3.2304241538242797 0 0.01 280 3 3 3
280 1 1.1936697513874233 3.5687165935745124 3.2304241582175184 0 1 280 3 3 3
1919 3 0.9686436663183189 4.840679954676907 4.646391874957683 0 0.01 919 1 -19 -8
1317 3 0.3394900498683606 4.484106103181688 3.125303748415031 0 0.01 317 1 -5 4
18 1 1.4948633052637772 4.760781987285405 2.867423024380845 0 1 18 6 16 -2
1018 3 1.4948632939815643 4.760781990695741 2.8674230266811245 0 0.01 18 6 16 -2
1856 3 0.5562746390074255 3.8775528690385856 2.813405254351762 0 0.01 856 0 13 8
919 1 0.9686436774341695 4.8406799515579815 4.646391877229286 0 1 919 1 -19 -8
1279 3 0.4228796350892602 2.8833664813368953 3.3921667033563248 0 0.01 279 3 -1 -1
856 1 0.5562746453122455 3.8775528647782678 2.813405264362203 0 1 856 0 13 8
279 1 0.4228796396101319 2.8833664802526098 3.392166696077859 0 1 279 3 -1 -1
714 1 1.4127246451798323 4.205305687889095 3.7477037486022375 0 1 714 1 -3 21
1714 3 1.4127246395665445 4.205305695559986 3.7477037450373505 0 0.01 714 1 -3 21
157 1 0.6374608697965582 4.022769496036612 3.608229887665376 0 1 157 5 2 3
1852 3 0.7984899915598254 3.08366617645673 4.554313529472409 0 0.01 852 1 0 -9
594 1 1.5132459783499415 2.7874494331537676 4.345872734637806 0 1 594 0 22 8
1594 3 1.5132459694755052 2.787449429632991 4.345872731044961 0 0.01 594 0 22 8
654 1 1.730405331546019 2.8618150667335374 3.7002160565506563 0 1 654 0 -9 13
1157 3 0.6374608755758584 4.0227694942181795 3.6082298904854797 0 0.01 157 5 2 3
1242 3 1.661036588406163 3.9720023218316953 2.4840028534985823 0 0.01 242 -2 18 14
242 1 1.6610365927189168 3.972002324368706 2.484002860358155 0 1 242 -2 18 14
852 1 0.7984899942413731 3.083666173240978 4.554313524615636 0 1 852 1 0 -9
1654 3 1.7304053225885636 2.8618150567475946 3.7002160547800895 0 0.01 654 0 -9 13
917 1 0.2805130063936985 4.463568133511096 4.805489289385974 0 1 917 4 -10 -20
1917 3 0.280513003699085 4.4635681407531695 4.805489293950119 0 0.01 917 4 -10 -20
317 1 0.33949005971748464 4.484106100356271 3.125303745249315 0 1 317 1 -5 4
473 1 2.5390374627883854 1.1183470958643922 0.748607619751814 0 1 473 -1 2 -3
1414 3 2.81054619894882 1.756086274474598 1.8724135884273736 0 0.01 414 -1 -12 -5
414 1 2.8105462057656783 1.7560862700233413 1.8724135933086385 0 1 414 -1 -12 -5
1473 3 2.539037457104175 1.118347092293027 0.7486076256020369 0 0.01 473 -1 2 -3
870 1 3.1894752916223257 1.9294179748893976 1.3399858448481863 0 1 870 5 -14 7
1870 3 3.1894752838699807 1.9294179774207805 1.339985849226913 0 0.01 870 5 -14 7
1232 3 2.183897483035257 0.5792111357193304 1.005517151039672 0 0.01 232 0 -8 0
232 1 2.183897489775411 0.5792111379282691 1.0055171425980547 0 1 232 0 -8 0
752 1 2.244734504403459 0.7395308840300053 1.7075024639605343 0 1 752 0 -3 7
1752 3 2.2447344987862263 0.7395308799768229 1.7075024580989326 0 0.01 752 0 -3 7
91 1 2.5444732939323678 4.824679229017444 1.5509929766423223 0 1 91 -1 -7 -4
1596 3 2.5215592705345857 4.528949264387774 2.292766427830246 0 0.01 596 3 -4 2
596 1 2.5215592741633275 4.528949271560813 2.292766429898995 0 1 596 3 -4 2
1091 3 2.5444732877193452 4.824679221386493 1.5509929739262718 0 0.01 91 -1 -7 -4
1442 3 2.8093587236675153 3.0236739146266944 1.1262423140534994 0 0.01 442 -6 -5 7
442 1 2.8093587257992843 3.0236739145427496 1.1262423115180487 0 1 442 -6 -5 7
1275 3 2.7493788515592126 3.8900014196442716 0.7620324468703088 0 0.01 275 4 2 8
275 1 2.74937886089247 3.8900014159221166 0.7620324510662437 0 1 275 4 2 8
1622 3 2.4953013248114337 4.663684649621525 0.2728793902709472 0 0.01 622 3 -4 24
622 1 2.4953013317504618 4.663684648625386 0.2728793866271059 0 1 622 3 -4 24
1764 3 2.378458216857664 0.06385933521259764 2.741369467644917 0 0.01 764 3 1 -5
1698 3 3.755840732015207 2.130779170248754 4.001597146353711 0 0.01 698 5 2 0
698 1 3.7558407341146096 2.130779178142719 4.001597149178218 0 1 698 5 2 0
956 1 3.020460501595616 0.29200809096055413 2.796702419236357 0 1 956 2 1 3
1956 3 3.02046049491253 0.29200810509820235 2.796702420399665 0 0.01 956 2 1 3
764 1 2.378458219092515 0.06385933854540138 2.7413694747826938 0 1 764 3 1 -5
1890 3 3.1213095906668182 1.7965879723579243 2.82188177777137 0 0.01 890 1 2 25
890 1 3.121309597303695 1.7965879742127169 2.8218817788721067 0 1 890 1 2 25
434 1 3.0463779865915175 1.242912565025395 3.27715342812254 0 1 434 -5 -5 -24
1434 3 3.046377977950947 1.2429125694361058 3.277153431093427 0 0.01 434 -5 -5 -24
135 1 3.3415792864624625 0.4410636709753669 4.418371076482482 0 1 135 0 34 4
1135 3 3.3415792792169077 0.44106367484851433 4.418371085042893 0 0.01 135 0 34 4
1689 3 2.50354417447665 0.8109074858141344 3.3407479795740453 0 0.01 689 3 9 -35
689 1 2.5035441818639983 0.8109074885448436 3.3407479838531016 0 1 689 3 9 -35
756 1 2.7068202494918534 0.3422892155542378 4.234105944508882 0 1 756 0 -1 30
1756 3 2.706820242378107 0.3422892168732984 4.234105940451211 0 0.01 756 0 -1 30
1123 3 2.194952423813697 0.8860917338739599 4.599520500894776 0 0.01 123 -6 5 -11
123 1 2.1949524277560615 0.8860917375018073 4.599520499095754 0 1 123 -6 5 -11
638 1 2.802615110104757 3.037020528106801 4.298823078138288 0 1 638 -5 1 6
1638 3 2.8026151022533723 3.0370205292446153 4.298823084364132 0 0.01 638 -5 1 6
1318 3 3.2730043970395766 4.147271287057893 4.754749584645911 0 0.01 318 5 14 5
1666 3 3.314037152047538 3.00317007743936 2.785673742594865 0 0.01 666 -2 13 -30
318 1 3.273004405986413 4.14727128992412 4.7547495896457965 0 1 318 5 14 5
666 1 3.314037156697479 3.0031700823312097 2.7856737347076703 0 1 666 -2 13 -30
1574 3 3.197097168074967 3.9428147263870525 2.658680810375713 0 0.01 574 -3 8 21
570 1 2.176741706664125 3.6650624161931638 3.511979602245698 0 1 570 -4 -13 -2
1570 3 2.176741694977768 3.665062416191561 3.5119795983625206 0 0.01 570 -4 -13 -2
574 1 3.1970971723399204 3.9428147235834317 2.6586808182953017 0 1 574 -3 8 21
1141 3 2.1722541427262216 3.0499814258853633 3.179589868952642 0 0.01 141 2 -12 -17
141 1 2.1722541485244284 3.0499814288497533 3.179589863259383 0 1 141 2 -12 -17
1521 3 2.2174138730593542 4.394071744271336 4.765132382902481 0 0.01 521 5 5 -2
521 1 2.2174138791457954 4.394071747143289 4.765132387550825 0 1 521 5 5 -2
70 1 0.9794378636219404 7.345138721445911 0.8088306121993049 0 1 70 1 -11 13
1387 3 2.2268085702252165 6.785963901910879 0.7676335227246445 0 0.01 387 -3 6 11
387 1 2.2268085775618838 6.785963901348695 0.7676335240197308 0 1 387 -3 6 11
1365 3 0.700831539464821 5.754502333783962 0.9053234203241398 0 0.01 365 3 -14 16
365 1 0.7008315441009246 5.754502329756495 0.9053234216754544 0 1 365 3 -14 16
1070 3 0.9794378556974539 7.345138728913857 0.808830612701626 0 0.01 70 1 -11 13
533 1 0.10149465717273759 6.9158468335039665 0.9058195904117858 0 1 533 -8 -2 19
1533 3 0.10149466088764027 6.915846839221367 0.9058195799978135 0 0.01 533 -8 -2 19
148 1 1.3075531837442396 7.100654759037438 2.207024477930062 0 1 148 1 10 -7
1148 3 1.3075531806143719 7.100654751542202 2.207024479063807 0 0.01 148 1 10 -7
487 1 0.06273682097006175 5.335868588697308 1.8941801235243823 0 1 487 6 -4 12
1487 3 0.06273681508392244 5.33586859229667 1.89418012137544 0 0.01 487 6 -4 12
844 1 0.598139380041914 7.084876033092292 2.3302773621736197 0 1 844 0 -1 5
1306 3 1.0123994478691674 5.55766418830766 1.6935333758076199 0 0.01 306 2 -2 1
1632 3 0.135792443842386 7.41808444172385 1.537212743824294 0 0.01 632 -1 12 7
306 1 1.0123994521971427 5.5576641963344855 1.6935333784587898 0 1 306 2 -2 1
257 1 0.41417997480341134 6.156311500143883 2.23756502040346 0 1 257 2 -24 -12
1257 3 0.41417996927849987 6.156311501206239 2.2375650188813734 0 0.01 257 2 -24 -12
93 1 2.090307789455112 5.417724927118598 0.29211220475833777 0 1 93 -3 -13 4
1093 3 2.090307784690892 5.417724922789866 0.292112209323892 0 0.01 93 -3 -13 4
1831 3 0.8844731342083919 6.891738100137942 0.003441590015677458 0 0.01 831 2 -4 -11
831 1 0.8844731333727471 6.891738091490556 0.003441585226687226 0 1 831 2 -4 -11
626 1 1.8020742712447408 5.402243606744988 1.707038964466074 0 1 626 4 10 2
1913 3 2.2273631700904266 7.338416143049567 1.877328268495568 0 0.01 913 -3 8 -10
474 1 0.7018284921720419 6.824805827393673 1.139914415703864 0 1 474 -11 1 1
1474 3 0.7018284864412048 6.8248058268762435 1.1399144192759478 0 0.01 474 -11 1 1
89 1 1.4561716679137033 6.239343009837494 1.0958055313399386 0 1 89 2 -17 13
1626 3 1.8020742689340876 5.40224361410369 1.7070389726005926 0 0.01 626 4 10 2
646 1 0.26988059473750725 6.706286978973618 1.6056368670208716 0 1 646 4 -7 -9
1646 3 0.2698805916338913 6.706286987712515 1.6056368651826003 0 0.01 646 4 -7 -9
1816 3 1.2804931388884682 7.475423510498447 0.11079097922619453 0 0.01 816 2 -6 -3
816 1 1.2804931402589577 7.4754235131194395 0.1107909730437876 0 1 816 2 -6 -3
550 1 1.9196432070786908 6.104415229834898 0.42625238686189587 0 1 550 -1 -9 15
1550 3 1.9196431985812357 6.104415224392226 0.4262523837909729 0 0.01 550 -1 -9 15
1089 3 1.456171665577006 6.239342997477365 1.0958055402054379 0 0.01 89 2 -17 13
1072 3 0.9418236264506618 5.040034600036453 2.1088252662522877 0 0.01 72 -4 -1 -25
72 1 0.9418236290352149 5.040034590674761 2.108825267986878 0 1 72 -4 -1 -25
1844 3 0.5981393771899218 7.084876026070872 2.330277368862101 0 0.01 844 0 -1 5
913 1 2.227363175739638 7.338416143574655 1.8773282705205856 0 1 913 -3 8 -10
8 1 1.3408864331943604 5.83124685105444 2.1578916555627323 0 1 8 0 -5 3
632 1 0.13579245017980557 7.418084433492931 1.537212746361828 0 1 632 -1 12 7
1008 3 1.3408864283982471 5.8312468488092515 2.1578916535786914 0 0.01 8 0 -5 3
634 1 0.8634008393769069 5.216710054101478 0.36673500283590027 0 1 634 -4 12 -5
1634 3 0.8634008464354382 5.216710053837438 0.36673499028530754 0 0.01 634 -4 12 -5
861 1 1.7979423888477857 5.496812717153455 1.0417712764268303 0 1 861 2 -18 -14
1861 3 1.7979423831619001 5.496812721311239 1.0417712767158314 0 0.01 861 2 -18 -14
361 1 1.030353298369693 6.488429897490852 0.5706439514109771 0 1 361 -7 -22 13
1361 3 1.0303532925950467 6.488429907437141 0.5706439593655209 0 0.01 361 -7 -22 13
56 1 1.9848556658010312 7.37576657070049 0.14648420005535948 0 1 56 -1 -15 -29
1056 3 1.9848556553250358 7.375766569644549 0.1464842080926771 0 0.01 56 -1 -15 -29
203 1 0.16963254054933227 5.188145533928396 0.4099102482824716 0 1 203 1 1 0
1203 3 0.16963253621418056 5.188145531711264 0.4099102392591249 0 0.01 203 1 1 0
1113 3 1.119309710957246 5.9629714065180215 0.15145692167221064 0 0.01 113 0 35 -6
113 1 1.119309715794856 5.962971401766362 0.15145693033415358 0 1 113 0 35 -6
1901 3 0.08955466681801409 4.904325847322066 1.1534739106135525 0 0.01 901 4 -17 -2
901 1 0.08955466190320634 4.904325840855148 1.1534739149128141 0 1 901 4 -17 -2
1210 3 0.008283282079364795 5.826603621248692 0.9260561995800378 0 0.01 210 0 2 11
210 1 0.008283289331266985 5.8266036252674285 0.9260561919544442 0 1 210 0 2 11
1869 3 2.6719324115476417 6.7639830662762845 1.2901639242989036 0 0.01 869 -2 3 12
869 1 2.671932416122719 6.763983054728582 1.2901639190558856 0 1 869 -2 3 12
1457 3 3.5230991167069083 5.569885021814004 2.2242453064775543 0 0.01 457 -3 12 -12
457 1 3.5230991143592676 5.56988501362397 2.22424530111361 0 1 457 -3 12 -12
1303 3 3.3299877869145424 6.924091305015809 1.4209259119532223 0 0.01 303 -1 17 -6
303 1 3.3299877877308353 6.924091313954994 1.420925920743823 0 1 303 -1 17 -6
499 1 2.7515752108383853 5.615348468673637 2.034318516451714 0 1 499 -1 -8 -2
1499 3 2.7515752062123613 5.615348467415937 2.034318528944438 0 0.01 499 -1 -8 -2
386 1 0.41194435920471284 5.277834032603585 3.333734236003355 0 1 386 1 1 36
1659 3 1.8039307247375476 5.8167370387799995 3.733116130915519 0 0.01 659 -2 5 5
1419 3 1.5559303081823115 5.868082848284608 4.659093322453199 0 0.01 419 3 6 5
419 1 1.5559303093015255 5.868082855307069 4.659093327891253 0 1 419 3 6 5
762 1 1.4124676445701305 7.469131738923616 3.4987572575571684 0 1 762 0 4 0
659 1 1.8039307341776272 5.8167370390371005 3.7331161317808497 0 1 659 -2 5 5
1762 3 1.4124676335385982 7.469131744553648 3.498757257389725 0 0.01 762 0 4 0
1601 3 1.9507341009020893 6.672859220232635 2.4291172986831344 0 0.01 601 3 4 1
498 1 0.7993002438031022 7.225293814649439 4.753455993232718 0 1 498 4 8 -16
1498 3 0.7993002315953575 7.225293808715874 4.753455988986098 0 0.01 498 4 8 -16
601 1 1.9507341062281527 6.672859222939938 2.4291172973253614 0 1 601 3 4 1
528 1 0.7922194771040794 7.489177915434211 4.0995408569586465 0 1 528 -2 -9 -6
1528 3 0.7922194779488391 7.489177919930612 4.099540867190886 0 0.01 528 -2 -9 -6
1175 3 0.3389093084304964 6.118804896824882 3.374168819730841 0 0.01 175 -3 -15 1
175 1 0.3389093169414708 6.118804890915942 3.374168818742026 0 1 175 -3 -15 1
576 1 2.0206542277169177 7.31375686638934 3.2216783195818985 0 1 576 2 22 4
1576 3 2.020654220903327 7.313756870179126 3.2216783256178316 0 0.01 576 2 22 4
1551 3 1.8990579393804572 5.071682174710319 4.256875934996546 0 0.01 551 1 3 11
1386 3 0.41194435466108326 5.277834027444489 3.333734229014853 0 0.01 386 1 1 36
676 1 0.06355709409584093 5.0593946958948255 4.0135278702474215 0 1 676 7 5 12
1264 3 1.069828243318299 6.108438764416031 3.4439251349781044 0 0.01 264 -5 -7 11
264 1 1.0698282414547695 6.10843875741994 3.443925138024735 0 1 264 -5 -7 11
608 1 0.7019932431016961 7.122689942889796 3.5056044888946913 0 1 608 3 -1 26
1608 3 0.7019932349787303 7.122689944140441 3.505604490281525 0 0.01 608 3 -1 26
551 1 1.8990579446068967 5.071682176371799 4.256875939557665 0 1 551 1 3 11
1522 3 1.7168770074493989 6.088383606705134 2.664136411442001 0 0.01 522 -2 -21 -9
522 1 1.7168770164632094 6.088383601170516 2.6641364054428993 0 1 522 -2 -21 -9
1676 3 0.06355708784078651 5.059394693460927 4.013527871686317 0 0.01 676 7 5 12
1553 3 0.9462280084491932 4.851635806182164 3.265143600544555 0 0.01 553 2 25 2
1642 3 1.9472653645800284 6.596438798099599 3.3510947142444696 0 0.01 642 1 -19 -2
642 1 1.947265370259987 6.596438800270047 3.351094714990932 0 1 642 1 -19 -2
553 1 0.9462280163156704 4.851635801760923 3.265143595153715 0 1 553 2 25 2
620 1 1.1467881750792308 5.520513662528407 3.0899914683191425 0 1 620 -4 2 6
1620 3 1.1467881678767908 5.520513660844735 3.089991463933928 0 0.01 620 -4 2 6
445 1 0.3078204069275021 6.826334581103242 4.363821128243803 0 1 445 -2 -24 20
1716 3 1.150433937843673 6.850164491571565 4.248585044575739 0 0.01 716 -3 -6 10
716 1 1.150433941124039 6.850164486449795 4.248585045786805 0 1 716 -3 -6 10
1445 3 0.3078204180084148 6.826334582576431 4.3638211280362365 0 0.01 445 -2 -24 20
532 1 0.642264414481476 5.404364341213932 4.733391420591108 0 1 532 5 22 4
1532 3 0.6422644166885718 5.404364340653125 4.733391411549304 0 0.01 532 5 22 4
184 1 1.3012088339290584 5.257562174586742 3.7654676005196066 0 1 184 0 6 7
1184 3 1.3012088290574955 5.2575621695789625 3.7654676005144365 0 0.01 184 0 6 7
930 1 0.004204156065631182 5.898858751253076 4.202869927031257 0 1 930 1 -1 2
1930 3 0.004204146270012643 5.8988587554172955 4.202869924125205 0 0.01 930 1 -1 2
1037 3 0.058036099337363485 6.893039640859826 3.4396789373831833 0 0.01 37 -2 -8 -3
37 1 0.05803609184476951 6.8930396358858825 3.4396789312430758 0 1 37 -2 -8 -3
1043 3 0.15686231848075916 7.4869374286891945 3.796743450410791 0 0.01 43 7 17 0
43 1 0.15686232590925378 7.486937423731437 3.796743448224903 0 1 43 7 17 0
799 1 2.6803487623819424 7.3808120291214685 4.073718612538378 0 1 799 -5 0 11
1799 3 2.680348757838963 7.380812028598369 4.073718613330653 0 0.01 799 -5 0 11
942 1 2.494459437906357 5.123452963952108 3.7390155649045216 0 1 942 5 -5 18
1942 3 2.4944594309553714 5.123452962960302 3.7390155663537032 0 0.01 942 5 -5 18
1702 3 2.6836142865482406 6.018595070320111 4.390201141373009 0 0.01 702 3 14 -22
702 1 2.683614288789904 6.018595070856193 4.390201142019198 0 1 702 3 14 -22
990 1 2.747484213211036 6.667645953022495 3.163364933821047 0 1 990 5 -19 0
1990 3 2.74748420525928 6.667645950939589 3.163364931931312 0 0.01 990 5 -19 0
1399 3 2.851642439386448 4.961338453501825 2.675712947324931 0 0.01 399 0 -19 18
399 1 2.8516424479176252 4.961338456469898 2.6757129449969344 0 1 399 0 -19 18
1088 3 1.1860869545184083 7.8268201385185385 1.797314668246407 0 0.01 88 -1 5 -18
568 1 1.5883443918239009 10.108682834191312 0.22488810799431222 0 1 568 2 10 -16
1798 3 2.15277211424183 9.432927946868803 0.21656999763889556 0 0.01 798 3 -14 -8
798 1 2.1527721170131313 9.432927945234544 0.21656999352318565 0 1 798 3 -14 -8
1179 3 1.0232516232819744 9.850596983867668 0.97722992122265 0 0.01 179 0 -2 -6
179 1 1.0232516218162926 9.85059699399952 0.9772299231687679 0 1 179 0 -2 -6
149 1 1.9385073394697494 9.170141293518343 1.6209998743670193 0 1 149 -4 11 3
1149 3 1.9385073313675956 9.170141296545587 1.620999882608433 0 0.01 149 -4 11 3
81 1 1.6598913703396332 9.513840737573858 0.871160291854248 0 1 81 -1 -19 4
1081 3 1.6598913583534525 9.513840731823928 0.8711602898518012 0 0.01 81 -1 -19 4
1485 3 0.2740616317864069 9.709022958542537 0.988565218325411 0 0.01 485 -4 -6 6
485 1 0.27406162455573757 9.709022955010132 0.9885652119497114 0 1 485 -4 -6 6
367 1 0.8497292917765696 9.470098572557992 1.629843048478388 0 1 367 5 -3 13
1367 3 0.8497292899484375 9.470098581122597 1.6298430426925878 0 0.01 367 5 -3 13
1503 3 1.0261485986649743 8.418949891361795 1.1777081067002828 0 0.01 503 -5 -22 -6
1678 3 1.9844726083262398 9.801024890596095 1.417448657878657 0 0.01 678 -5 -7 1
678 1 1.9844726106999628 9.801024888532964 1.417448658612772 0 1 678 -5 -7 1
1428 3 0.9126116564459001 10.339024680772985 0.5440712866853348 0 0.01 428 2 -10 10
428 1 0.9126116668385922 10.339024682249454 0.5440712833971751 0 1 428 2 -10 10
1790 3 0.30846499893558366 8.63572056208077 1.6448445518623898 0 0.01 790 0 5 8
76 1 2.0595398952111896 9.020626890230936 0.9685216148180072 0 1 76 4 -10 -17
503 1 1.0261486084608473 8.418949887848445 1.1777081071329971 0 1 503 -5 -22 -6
1161 3 0.3241056499691836 10.014932372939304 1.608904190635028 0 0.01 161 -4 4 -15
88 1 1.1860869564226193 7.826820128298188 1.7973146662393034 0 1 88 -1 5 -18
161 1 0.3241056588219963 10.014932368187674 1.60890419695877 0 1 161 -4 4 -15
790 1 0.3084650002168272 8.635720568751696 1.6448445597843342 0 1 790 0 5 8
1076 3 2.0595398898151425 9.020626894017465 0.9685216148879153 0 0.01 76 4 -10 -17
146 1 1.5403941041499547 10.512551232832804 2.2558629623885587 0 1 146 0 -21 -12
1830 3 1.83436298876343 8.140445237701638 1.9142321280162757 0 0.01 830 -6 5 16
855 1 0.24620146816505475 7.632369798281679 0.5410835798363061 0 1 855 4 0 0
429 1 0.27027925488333876 10.635195407826782 0.0718599070929138 0 1 429 3 -19 11
1019 3 0.2872778057021686 8.645507172957922 2.34204956309258 0 0.01 19 2 3 1
19 1 0.2872778168812298 8.645507175207191 2.342049556588012 0 1 19 2 3 1
1146 3 1.5403940990390004 10.512551222214233 2.2558629658618976 0 0.01 146 0 -21 -12
671 1 0.8460771079964085 8.121219652181246 0.5428750977330707 0 1 671 -1 25 -7