LAMMPS data file

2000 atoms
3 atom types
0 ellipsoids
0 bonds
1 bond types

0.0 10.772173 xlo xhi
0.0 10.772173 ylo yhi
0.0 10.772173 zlo zhi

Atoms

1 1 0.0000000000 0.0000000000 0.0000000000 0 1.000000 1 0 0 0
1001 3 0.0000000020 0.0000000027 0.0000000066 0 0.010000 1 0 0 0
2 1 0.0000000000 0.0000000000 1.0772173450 0 1.000000 2 0 0 0
1002 3 0.0000000083 0.0000000040 1.0772173525 0 0.010000 2 0 0 0
3 1 0.0000000000 0.0000000000 2.1544346900 0 1.000000 3 0 0 0
1003 3 0.0000000075 0.0000000027 2.1544346934 0 0.010000 3 0 0 0
4 1 0.0000000000 0.0000000000 3.2316520350 0 1.000000 4 0 0 0
1004 3 0.0000000001 0.0000000077 3.2316520399 0 0.010000 4 0 0 0
5 1 0.0000000000 0.0000000000 4.3088693801 0 1.000000 5 0 0 0
1005 3 0.0000000029 0.0000000098 4.3088693877 0 0.010000 5 0 0 0
6 1 0.0000000000 0.0000000000 5.3860867251 0 1.000000 6 0 0 0
1006 3 0.0000000012 0.0000000088 5.3860867334 0 0.010000 6 0 0 0
7 1 0.0000000000 0.0000000000 6.4633040701 0 1.000000 7 0 0 0
1007 3 0.0000000061 0.0000000075 6.4633040758 0 0.010000 7 0 0 0
8 1 0.0000000000 0.0000000000 7.5405214151 0 1.000000 8 0 0 0
1008 3 0.0000000029 0.0000000041 7.5405214177 0 0.010000 8 0 0 0
9 1 0.0000000000 0.0000000000 8.6177387601 0 1.000000 9 0 0 0
1009 3 0.0000000087 0.0000000059 8.6177387616 0 0.010000 9 0 0 0
10 1 0.0000000000 0.0000000000 9.6949561051 0 1.000000 10 0 0 0
1010 3 0.0000000062 0.0000000026 9.6949561078 0 0.010000 10 0 0 0
11 1 0.0000000000 1.0772173450 0.0000000000 0 1.000000 11 0 0 0
1011 3 0.0000000097 1.0772173481 0.0000000024 0 0.010000 11 0 0 0
12 1 0.0000000000 1.0772173450 1.0772173450 0 1.000000 12 0 0 0
1012 3 0.0000000074 1.0772173464 1.0772173539 0 0.010000 12 0 0 0
13 1 0.0000000000 1.0772173450 2.1544346900 0 1.000000 13 0 0 0
1013 3 0.0000000097 1.0772173545 2.1544346929 0 0.010000 13 0 0 0
14 1 0.0000000000 1.0772173450 3.2316520350 0 1.000000 14 0 0 0
1014 3 0.0000000092 1.0772173510 3.2316520379 0 0.010000 14 0 0 0
15 1 0.0000000000 1.0772173450 4.3088693801 0 1.000000 15 0 0 0
1015 3 0.0000000095 1.0772173490 4.3088693893 0 0.010000 15 0 0 0
16 1 0.0000000000 1.0772173450 5.3860867251 0 1.000000 16 0 0 0
1016 3 0.0000000025 1.0772173534 5.3860867280 0 0.010000 16 0 0 0
17 1 0.0000000000 1.0772173450 6.4633040701 0 1.000000 17 0 0 0
1017 3 0.0000000094 1.0772173502 6.4633040757 0 0.010000 17 0 0 0
18 1 0.0000000000 1.0772173450 7.5405214151 0 1.000000 18 0 0 0
1018 3 0.0000000074 1.0772173502 7.5405214230 0 0.010000 18 0 0 0
19 1 0.0000000000 1.0772173450 8.6177387601 0 1.000000 19 0 0 0
1019 3 0.0000000011 1.0772173543 8.6177387693 0 0.010000 19 0 0 0
20 1 0.0000000000 1.0772173450 9.6949561051 0 1.000000 20 0 0 0
1020 3 0.0000000015 1.0772173470 9.6949561145 0 0.010000 20 0 0 0
21 1 0.0000000000 2.1544346900 0.0000000000 0 1.000000 21 0 0 0
1021 3 0.0000000008 2.1544346903 0.0000000052 0 0.010000 21 0 0 0
22 1 0.0000000000 2.1544346900 1.0772173450 0 1.000000 22 0 0 0
1022 3 0.0000000099 2.1544346936 1.0772173519 0 0.010000 22 0 0 0
23 1 0.0000000000 2.1544346900 2.1544346900 0 1.000000 23 0 0 0
1023 3 0.0000000036 2.1544346980 2.1544346935 0 0.010000 23 0 0 0
24 1 0.0000000000 2.1544346900 3.2316520350 0 1.000000 24 0 0 0
1024 3 0.0000000014 2.1544346995 3.2316520402 0 0.010000 24 0 0 0
25 1 0.0000000000 2.1544346900 4.3088693801 0 1.000000 25 0 0 0
1025 3 0.0000000000 2.1544346905 4.3088693882 0 0.010000 25 0 0 0
26 1 0.0000000000 2.1544346900 5.3860867251 0 1.000000 26 0 0 0
1026 3 0.0000000035 2.1544346934 5.3860867298 0 0.010000 26 0 0 0
27 1 0.0000000000 2.1544346900 6.4633040701 0 1.000000 27 0 0 0
1027 3 0.0000000018 2.1544346917 6.4633040738 0 0.010000 27 0 0 0
28 1 0.0000000000 2.1544346900 7.5405214151 0 1.000000 28 0 0 0
1028 3 0.0000000017 2.1544346908 7.5405214167 0 0.010000 28 0 0 0
29 1 0.0000000000 2.1544346900 8.6177387601 0 1.000000 29 0 0 0
1029 3 0.0000000074 2.1544346960 8.6177387694 0 0.010000 29 0 0 0
30 1 0.0000000000 2.1544346900 9.6949561051 0 1.000000 30 0 0 0
1030 3 0.0000000055 2.1544346982 9.6949561056 0 0.010000 30 0 0 0
31 1 0.0000000000 3.2316520350 0.0000000000 0 1.000000 31 0 0 0
1031 3 0.0000000059 3.2316520368 0.0000000067 0 0.010000 31 0 0 0
32 1 0.0000000000 3.2316520350 1.0772173450 0 1.000000 32 0 0 0
1032 3 0.0000000023 3.2316520384 1.0772173470 0 0.010000 32 0 0 0
33 1 0.0000000000 3.2316520350 2.1544346900 0 1.000000 33 0 0 0
1033 3 0.0000000080 3.2316520397 2.1544346945 0 0.010000 33 0 0 0
34 1 0.0000000000 3.2316520350 3.2316520350 0 1.000000 34 0 0 0
1034 3 0.0000000067 3.2316520385 3.2316520352 0 0.010000 34 0 0 0
35 1 0.0000000000 3.2316520350 4.3088693801 0 1.000000 35 0 0 0
1035 3 0.0000000087 3.2316520443 4.3088693881 0 0.010000 35 0 0 0
36 1 0.0000000000 3.2316520350 5.3860867251 0 1.000000 36 0 0 0
1036 3 0.0000000100 3.2316520367 5.3860867265 0 0.010000 36 0 0 0
37 1 0.0000000000 3.2316520350 6.4633040701 0 1.000000 37 0 0 0
1037 3 0.0000000037 3.2316520395 6.4633040793 0 0.010000 37 0 0 0
38 1 0.0000000000 3.2316520350 7.5405214151 0 1.000000 38 0 0 0
1038 3 0.0000000021 3.2316520368 7.5405214183 0 0.010000 38 0 0 0
39 1 0.0000000000 3.2316520350 8.6177387601 0 1.000000 39 0 0 0
1039 3 0.0000000077 3.2316520437 8.6177387671 0 0.010000 39 0 0 0
40 1 0.0000000000 3.2316520350 9.6949561051 0 1.000000 40 0 0 0
1040 3 0.0000000089 3.2316520413 9.6949561085 0 0.010000 40 0 0 0
41 1 0.0000000000 4.3088693801 0.0000000000 0 1.000000 41 0 0 0
1041 3 0.0000000029 4.3088693805 0.0000000026 0 0.010000 41 0 0 0
42 1 0.0000000000 4.3088693801 1.0772173450 0 1.000000 42 0 0 0
1042 3 0.0000000007 4.3088693868 1.0772173522 0 0.010000 42 0 0 0
43 1 0.0000000000 4.3088693801 2.1544346900 0 1.000000 43 0 0 0
1043 3 0.0000000082 4.3088693838 2.1544346919 0 0.010000 43 0 0 0
44 1 0.0000000000 4.3088693801 3.2316520350 0 1.000000 44 0 0 0
1044 3 0.0000000012 4.3088693837 3.2316520385 0 0.010000 44 0 0 0
45 1 0.0000000000 4.3088693801 4.3088693801 0 1.000000 45 0 0 0
1045 3 0.0000000047 4.3088693819 4.3088693817 0 0.010000 45 0 0 0
46 1 0.0000000000 4.3088693801 5.3860867251 0 1.000000 46 0 0 0
1046 3 0.0000000073 4.3088693900 5.3860867334 0 0.010000 46 0 0 0
47 1 0.0000000000 4.3088693801 6.4633040701 0 1.000000 47 0 0 0
1047 3 0.0000000088 4.3088693824 6.4633040747 0 0.010000 47 0 0 0
48 1 0.0000000000 4.3088693801 7.5405214151 0 1.000000 48 0 0 0
1048 3 0.0000000042 4.3088693877 7.5405214162 0 0.010000 48 0 0 0
49 1 0.0000000000 4.3088693801 8.6177387601 0 1.000000 49 0 0 0
1049 3 0.0000000100 4.3088693879 8.6177387699 0 0.010000 49 0 0 0
50 1 0.0000000000 4.3088693801 9.6949561051 0 1.000000 50 0 0 0
1050 3 0.0000000007 4.3088693814 9.6949561136 0 0.010000 50 0 0 0
51 1 0.0000000000 5.3860867251 0.0000000000 0 1.000000 51 0 0 0
1051 3 0.0000000070 5.3860867314 0.0000000026 0 0.010000 51 0 0 0
52 1 0.0000000000 5.3860867251 1.0772173450 0 1.000000 52 0 0 0
1052 3 0.0000000097 5.3860867293 1.0772173472 0 0.010000 52 0 0 0
53 1 0.0000000000 5.3860867251 2.1544346900 0 1.000000 53 0 0 0
1053 3 0.0000000099 5.3860867279 2.1544346978 0 0.010000 53 0 0 0
54 1 0.0000000000 5.3860867251 3.2316520350 0 1.000000 54 0 0 0
1054 3 0.0000000087 5.3860867298 3.2316520420 0 0.010000 54 0 0 0
55 1 0.0000000000 5.3860867251 4.3088693801 0 1.000000 55 0 0 0
1055 3 0.0000000086 5.3860867342 4.3088693826 0 0.010000 55 0 0 0
56 1 0.0000000000 5.3860867251 5.3860867251 0 1.000000 56 0 0 0
1056 3 0.0000000099 5.3860867303 5.3860867322 0 0.010000 56 0 0 0
57 1 0.0000000000 5.3860867251 6.4633040701 0 1.000000 57 0 0 0
1057 3 0.0000000045 5.3860867294 6.4633040758 0 0.010000 57 0 0 0
58 1 0.0000000000 5.3860867251 7.5405214151 0 1.000000 58 0 0 0
1058 3 0.0000000040 5.3860867260 7.5405214176 0 0.010000 58 0 0 0
59 1 0.0000000000 5.3860867251 8.6177387601 0 1.000000 59 0 0 0
1059 3 0.0000000062 5.3860867328 8.6177387639 0 0.010000 59 0 0 0
60 1 0.0000000000 5.3860867251 9.6949561051 0 1.000000 60 0 0 0
1060 3 0.0000000040 5.3860867322 9.6949561084 0 0.010000 60 0 0 0
61 1 0.0000000000 6.4633040701 0.0000000000 0 1.000000 61 0 0 0
1061 3 0.0000000060 6.4633040734 0.0000000015 0 0.010000 61 0 0 0
62 1 0.0000000000 6.4633040701 1.0772173450 0 1.000000 62 0 0 0
1062 3 0.0000000045 6.4633040750 1.0772173524 0 0.010000 62 0 0 0
63 1 0.0000000000 6.4633040701 2.1544346900 0 1.000000 63 0 0 0
1063 3 0.0000000082 6.4633040734 2.1544346915 0 0.010000 63 0 0 0
64 1 0.0000000000 6.4633040701 3.2316520350 0 1.000000 64 0 0 0
1064 3 0.0000000061 6.4633040728 3.2316520356 0 0.010000 64 0 0 0
65 1 0.0000000000 6.4633040701 4.3088693801 0 1.000000 65 0 0 0
1065 3 0.0000000088 6.4633040739 4.3088693833 0 0.010000 65 0 0 0
66 1 0.0000000000 6.4633040701 5.3860867251 0 1.000000 66 0 0 0
1066 3 0.0000000098 6.4633040736 5.3860867296 0 0.010000 66 0 0 0
67 1 0.0000000000 6.4633040701 6.4633040701 0 1.000000 67 0 0 0
1067 3 0.0000000002 6.4633040751 6.4633040740 0 0.010000 67 0 0 0
68 1 0.0000000000 6.4633040701 7.5405214151 0 1.000000 68 0 0 0
1068 3 0.0000000019 6.4633040707 7.5405214194 0 0.010000 68 0 0 0
69 1 0.0000000000 6.4633040701 8.6177387601 0 1.000000 69 0 0 0
1069 3 0.0000000021 6.4633040766 8.6177387667 0 0.010000 69 0 0 0
70 1 0.0000000000 6.4633040701 9.6949561051 0 1.000000 70 0 0 0
1070 3 0.0000000052 6.4633040758 9.6949561128 0 0.010000 70 0 0 0
71 1 0.0000000000 7.5405214151 0.0000000000 0 1.000000 71 0 0 0
1071 3 0.0000000066 7.5405214236 0.0000000027 0 0.010000 71 0 0 0
72 1 0.0000000000 7.5405214151 1.0772173450 0 1.000000 72 0 0 0
1072 3 0.0000000084 7.5405214190 1.0772173484 0 0.010000 72 0 0 0
73 1 0.0000000000 7.5405214151 2.1544346900 0 1.000000 73 0 0 0
1073 3 0.0000000038 7.5405214233 2.1544346989 0 0.010000 73 0 0 0
74 1 0.0000000000 7.5405214151 3.2316520350 0 1.000000 74 0 0 0
1074 3 0.0000000090 7.5405214199 3.2316520361 0 0.010000 74 0 0 0
75 1 0.0000000000 7.5405214151 4.3088693801 0 1.000000 75 0 0 0
1075 3 0.0000000054 7.5405214163 4.3088693878 0 0.010000 75 0 0 0
76 1 0.0000000000 7.5405214151 5.3860867251 0 1.000000 76 0 0 0
1076 3 0.0000000055 7.5405214187 5.3860867256 0 0.010000 76 0 0 0
77 1 0.0000000000 7.5405214151 6.4633040701 0 1.000000 77 0 0 0
1077 3 0.0000000050 7.5405214208 6.4633040799 0 0.010000 77 0 0 0
78 1 0.0000000000 7.5405214151 7.5405214151 0 1.000000 78 0 0 0
1078 3 0.0000000077 7.5405214229 7.5405214182 0 0.010000 78 0 0 0
79 1 0.0000000000 7.5405214151 8.6177387601 0 1.000000 79 0 0 0
1079 3 0.0000000038 7.5405214216 8.6177387615 0 0.010000 79 0 0 0
80 1 0.0000000000 7.5405214151 9.6949561051 0 1.000000 80 0 0 0
1080 3 0.0000000081 7.5405214200 9.6949561100 0 0.010000 80 0 0 0
81 1 0.0000000000 8.6177387601 0.0000000000 0 1.000000 81 0 0 0
1081 3 0.0000000093 8.6177387642 0.0000000088 0 0.010000 81 0 0 0
82 1 0.0000000000 8.6177387601 1.0772173450 0 1.000000 82 0 0 0
1082 3 0.0000000084 8.6177387615 1.0772173478 0 0.010000 82 0 0 0
83 1 0.0000000000 8.6177387601 2.1544346900 0 1.000000 83 0 0 0
1083 3 0.0000000100 8.6177387656 2.1544346927 0 0.010000 83 0 0 0
84 1 0.0000000000 8.6177387601 3.2316520350 0 1.000000 84 0 0 0
1084 3 0.0000000039 8.6177387639 3.2316520436 0 0.010000 84 0 0 0
85 1 0.0000000000 8.6177387601 4.3088693801 0 1.000000 85 0 0 0
1085 3 0.0000000028 8.6177387655 4.3088693844 0 0.010000 85 0 0 0
86 1 0.0000000000 8.6177387601 5.3860867251 0 1.000000 86 0 0 0
1086 3 0.0000000088 8.6177387675 5.3860867344 0 0.010000 86 0 0 0
87 1 0.0000000000 8.6177387601 6.4633040701 0 1.000000 87 0 0 0
1087 3 0.0000000089 8.6177387690 6.4633040740 0 0.010000 87 0 0 0
88 1 0.0000000000 8.6177387601 7.5405214151 0 1.000000 88 0 0 0
1088 3 0.0000000073 8.6177387660 7.5405214200 0 0.010000 88 0 0 0
89 1 0.0000000000 8.6177387601 8.6177387601 0 1.000000 89 0 0 0
1089 3 0.0000000075 8.6177387694 8.6177387698 0 0.010000 89 0 0 0
90 1 0.0000000000 8.6177387601 9.6949561051 0 1.000000 90 0 0 0
1090 3 0.0000000084 8.6177387611 9.6949561070 0 0.010000 90 0 0 0
91 1 0.0000000000 9.6949561051 0.0000000000 0 1.000000 91 0 0 0
1091 3 0.0000000065 9.6949561087 0.0000000070 0 0.010000 91 0 0 0
92 1 0.0000000000 9.6949561051 1.0772173450 0 1.000000 92 0 0 0
1092 3 0.0000000023 9.6949561057 1.0772173537 0 0.010000 92 0 0 0
93 1 0.0000000000 9.6949561051 2.1544346900 0 1.000000 93 0 0 0
1093 3 0.0000000060 9.6949561069 2.1544346948 0 0.010000 93 0 0 0
94 1 0.0000000000 9.6949561051 3.2316520350 0 1.000000 94 0 0 0
1094 3 0.0000000073 9.6949561065 3.2316520356 0 0.010000 94 0 0 0
95 1 0.0000000000 9.6949561051 4.3088693801 0 1.000000 95 0 0 0
1095 3 0.0000000063 9.6949561126 4.3088693882 0 0.010000 95 0 0 0
96 1 0.0000000000 9.6949561051 5.3860867251 0 1.000000 96 0 0 0
1096 3 0.0000000058 9.6949561149 5.3860867318 0 0.010000 96 0 0 0
97 1 0.0000000000 9.6949561051 6.4633040701 0 1.000000 97 0 0 0
1097 3 0.0000000064 9.6949561121 6.4633040792 0 0.010000 97 0 0 0
98 1 0.0000000000 9.6949561051 7.5405214151 0 1.000000 98 0 0 0
1098 3 0.0000000062 9.6949561133 7.5405214248 0 0.010000 98 0 0 0
99 1 0.0000000000 9.6949561051 8.6177387601 0 1.000000 99 0 0 0
1099 3 0.0000000061 9.6949561100 8.6177387654 0 0.010000 99 0 0 0
100 1 0.0000000000 9.6949561051 9.6949561051 0 1.000000 100 0 0 0
1100 3 0.0000000034 9.6949561142 9.6949561108 0 0.010000 100 0 0 0
101 1 1.0772173450 0.0000000000 0.0000000000 0 1.000000 101 0 0 0
1101 3 1.0772173549 0.0000000037 0.0000000032 0 0.010000 101 0 0 0
102 1 1.0772173450 0.0000000000 1.0772173450 0 1.000000 102 0 0 0
1102 3 1.0772173470 0.0000000056 1.0772173508 0 0.010000 102 0 0 0
103 1 1.0772173450 0.0000000000 2.1544346900 0 1.000000 103 0 0 0
1103 3 1.0772173522 0.0000000097 2.1544346964 0 0.010000 103 0 0 0
104 1 1.0772173450 0.0000000000 3.2316520350 0 1.000000 104 0 0 0
1104 3 1.0772173461 0.0000000094 3.2316520435 0 0.010000 104 0 0 0
105 1 1.0772173450 0.0000000000 4.3088693801 0 1.000000 105 0 0 0
1105 3 1.0772173489 0.0000000012 4.3088693826 0 0.010000 105 0 0 0
106 1 1.0772173450 0.0000000000 5.3860867251 0 1.000000 106 0 0 0
1106 3 1.0772173494 0.0000000021 5.3860867303 0 0.010000 106 0 0 0
107 1 1.0772173450 0.0000000000 6.4633040701 0 1.000000 107 0 0 0
1107 3 1.0772173492 0.0000000089 6.4633040706 0 0.010000 107 0 0 0
108 1 1.0772173450 0.0000000000 7.5405214151 0 1.000000 108 0 0 0
1108 3 1.0772173548 0.0000000003 7.5405214192 0 0.010000 108 0 0 0
109 1 1.0772173450 0.0000000000 8.6177387601 0 1.000000 109 0 0 0
1109 3 1.0772173482 0.0000000052 8.6177387664 0 0.010000 109 0 0 0
110 1 1.0772173450 0.0000000000 9.6949561051 0 1.000000 110 0 0 0
1110 3 1.0772173511 0.0000000019 9.6949561077 0 0.010000 110 0 0 0
111 1 1.0772173450 1.0772173450 0.0000000000 0 1.000000 111 0 0 0
1111 3 1.0772173481 1.0772173546 0.0000000046 0 0.010000 111 0 0 0
112 1 1.0772173450 1.0772173450 1.0772173450 0 1.000000 112 0 0 0
1112 3 1.0772173537 1.0772173475 1.0772173505 0 0.010000 112 0 0 0
113 1 1.0772173450 1.0772173450 2.1544346900 0 1.000000 113 0 0 0
1113 3 1.0772173510 1.0772173505 2.1544346974 0 0.010000 113 0 0 0
114 1 1.0772173450 1.0772173450 3.2316520350 0 1.000000 114 0 0 0
1114 3 1.0772173523 1.0772173501 3.2316520360 0 0.010000 114 0 0 0
115 1 1.0772173450 1.0772173450 4.3088693801 0 1.000000 115 0 0 0
1115 3 1.0772173452 1.0772173491 4.3088693809 0 0.010000 115 0 0 0
116 1 1.0772173450 1.0772173450 5.3860867251 0 1.000000 116 0 0 0
1116 3 1.0772173503 1.0772173535 5.3860867253 0 0.010000 116 0 0 0
117 1 1.0772173450 1.0772173450 6.4633040701 0 1.000000 117 0 0 0
1117 3 1.0772173516 1.0772173540 6.4633040785 0 0.010000 117 0 0 0
118 1 1.0772173450 1.0772173450 7.5405214151 0 1.000000 118 0 0 0
1118 3 1.0772173466 1.0772173545 7.5405214200 0 0.010000 118 0 0 0
119 1 1.0772173450 1.0772173450 8.6177387601 0 1.000000 119 0 0 0
1119 3 1.0772173517 1.0772173503 8.6177387688 0 0.010000 119 0 0 0
120 1 1.0772173450 1.0772173450 9.6949561051 0 1.000000 120 0 0 0
1120 3 1.0772173535 1.0772173535 9.6949561063 0 0.010000 120 0 0 0
121 1 1.0772173450 2.1544346900 0.0000000000 0 1.000000 121 0 0 0
1121 3 1.0772173471 2.1544346950 0.0000000060 0 0.010000 121 0 0 0
122 1 1.0772173450 2.1544346900 1.0772173450 0 1.000000 122 0 0 0
1122 3 1.0772173460 2.1544346942 1.0772173524 0 0.010000 122 0 0 0
123 1 1.0772173450 2.1544346900 2.1544346900 0 1.000000 123 0 0 0
1123 3 1.0772173471 2.1544346952 2.1544346907 0 0.010000 123 0 0 0
124 1 1.0772173450 2.1544346900 3.2316520350 0 1.000000 124 0 0 0
1124 3 1.0772173549 2.1544346933 3.2316520352 0 0.010000 124 0 0 0
125 1 1.0772173450 2.1544346900 4.3088693801 0 1.000000 125 0 0 0
1125 3 1.0772173541 2.1544346925 4.3088693817 0 0.010000 125 0 0 0
126 1 1.0772173450 2.1544346900 5.3860867251 0 1.000000 126 0 0 0
1126 3 1.0772173477 2.1544346922 5.3860867278 0 0.010000 126 0 0 0
127 1 1.0772173450 2.1544346900 6.4633040701 0 1.000000 127 0 0 0
1127 3 1.0772173500 2.1544346957 6.4633040735 0 0.010000 127 0 0 0
128 1 1.0772173450 2.1544346900 7.5405214151 0 1.000000 128 0 0 0
1128 3 1.0772173527 2.1544346975 7.5405214220 0 0.010000 128 0 0 0
129 1 1.0772173450 2.1544346900 8.6177387601 0 1.000000 129 0 0 0
1129 3 1.0772173529 2.1544346966 8.6177387681 0 0.010000 129 0 0 0
130 1 1.0772173450 2.1544346900 9.6949561051 0 1.000000 130 0 0 0
1130 3 1.0772173542 2.1544346977 9.6949561126 0 0.010000 130 0 0 0
131 1 1.0772173450 3.2316520350 0.0000000000 0 1.000000 131 0 0 0
1131 3 1.0772173454 3.2316520431 0.0000000080 0 0.010000 131 0 0 0
132 1 1.0772173450 3.2316520350 1.0772173450 0 1.000000 132 0 0 0
1132 3 1.0772173498 3.2316520424 1.0772173544 0 0.010000 132 0 0 0
133 1 1.0772173450 3.2316520350 2.1544346900 0 1.000000 133 0 0 0
1133 3 1.0772173507 3.2316520385 2.1544346960 0 0.010000 133 0 0 0
134 1 1.0772173450 3.2316520350 3.2316520350 0 1.000000 134 0 0 0
1134 3 1.0772173492 3.2316520356 3.2316520354 0 0.010000 134 0 0 0
135 1 1.0772173450 3.2316520350 4.3088693801 0 1.000000 135 0 0 0
1135 3 1.0772173548 3.2316520407 4.3088693836 0 0.010000 135 0 0 0
136 1 1.0772173450 3.2316520350 5.3860867251 0 1.000000 136 0 0 0
1136 3 1.0772173472 3.2316520425 5.3860867254 0 0.010000 136 0 0 0
137 1 1.0772173450 3.2316520350 6.4633040701 0 1.000000 137 0 0 0
1137 3 1.0772173520 3.2316520406 6.4633040715 0 0.010000 137 0 0 0
138 1 1.0772173450 3.2316520350 7.5405214151 0 1.000000 138 0 0 0
1138 3 1.0772173481 3.2316520394 7.5405214205 0 0.010000 138 0 0 0
139 1 1.0772173450 3.2316520350 8.6177387601 0 1.000000 139 0 0 0
1139 3 1.0772173469 3.2316520411 8.6177387656 0 0.010000 139 0 0 0
140 1 1.0772173450 3.2316520350 9.6949561051 0 1.000000 140 0 0 0
1140 3 1.0772173525 3.2316520422 9.6949561101 0 0.010000 140 0 0 0
141 1 1.0772173450 4.3088693801 0.0000000000 0 1.000000 141 0 0 0
1141 3 1.0772173451 4.3088693817 0.0000000085 0 0.010000 141 0 0 0
142 1 1.0772173450 4.3088693801 1.0772173450 0 1.000000 142 0 0 0
1142 3 1.0772173542 4.3088693887 1.0772173502 0 0.010000 142 0 0 0
143 1 1.0772173450 4.3088693801 2.1544346900 0 1.000000 143 0 0 0
1143 3 1.0772173454 4.3088693813 2.1544346945 0 0.010000 143 0 0 0
144 1 1.0772173450 4.3088693801 3.2316520350 0 1.000000 144 0 0 0
1144 3 1.0772173458 4.3088693898 3.2316520401 0 0.010000 144 0 0 0
145 1 1.0772173450 4.3088693801 4.3088693801 0 1.000000 145 0 0 0
1145 3 1.0772173451 4.3088693829 4.3088693865 0 0.010000 145 0 0 0
146 1 1.0772173450 4.3088693801 5.3860867251 0 1.000000 146 0 0 0
1146 3 1.0772173541 4.3088693879 5.3860867278 0 0.010000 146 0 0 0
147 1 1.0772173450 4.3088693801 6.4633040701 0 1.000000 147 0 0 0
1147 3 1.0772173498 4.3088693822 6.4633040715 0 0.010000 147 0 0 0
148 1 1.0772173450 4.3088693801 7.5405214151 0 1.000000 148 0 0 0
1148 3 1.0772173485 4.3088693875 7.5405214156 0 0.010000 148 0 0 0
149 1 1.0772173450 4.3088693801 8.6177387601 0 1.000000 149 0 0 0
1149 3 1.0772173538 4.3088693866 8.6177387649 0 0.010000 149 0 0 0
150 1 1.0772173450 4.3088693801 9.6949561051 0 1.000000 150 0 0 0
1150 3 1.0772173529 4.3088693826 9.6949561087 0 0.010000 150 0 0 0
151 1 1.0772173450 5.3860867251 0.0000000000 0 1.000000 151 0 0 0
1151 3 1.0772173466 5.3860867317 0.0000000052 0 0.010000 151 0 0 0
152 1 1.0772173450 5.3860867251 1.0772173450 0 1.000000 152 0 0 0
1152 3 1.0772173509 5.3860867322 1.0772173515 0 0.010000 152 0 0 0
153 1 1.0772173450 5.3860867251 2.1544346900 0 1.000000 153 0 0 0
1153 3 1.0772173548 5.3860867342 2.1544346938 0 0.010000 153 0 0 0
154 1 1.0772173450 5.3860867251 3.2316520350 0 1.000000 154 0 0 0
1154 3 1.0772173541 5.3860867319 3.2316520365 0 0.010000 154 0 0 0
155 1 1.0772173450 5.3860867251 4.3088693801 0 1.000000 155 0 0 0
1155 3 1.0772173522 5.3860867262 4.3088693823 0 0.010000 155 0 0 0
156 1 1.0772173450 5.3860867251 5.3860867251 0 1.000000 156 0 0 0
1156 3 1.0772173510 5.3860867283 5.3860867345 0 0.010000 156 0 0 0
157 1 1.0772173450 5.3860867251 6.4633040701 0 1.000000 157 0 0 0
1157 3 1.0772173481 5.3860867287 6.4633040748 0 0.010000 157 0 0 0
158 1 1.0772173450 5.3860867251 7.5405214151 0 1.000000 158 0 0 0
1158 3 1.0772173549 5.3860867296 7.5405214169 0 0.010000 158 0 0 0
159 1 1.0772173450 5.3860867251 8.6177387601 0 1.000000 159 0 0 0
1159 3 1.0772173528 5.3860867328 8.6177387617 0 0.010000 159 0 0 0
160 1 1.0772173450 5.3860867251 9.6949561051 0 1.000000 160 0 0 0
1160 3 1.0772173473 5.3860867266 9.6949561081 0 0.010000 160 0 0 0
161 1 1.0772173450 6.4633040701 0.0000000000 0 1.000000 161 0 0 0
1161 3 1.0772173548 6.4633040754 0.0000000041 0 0.010000 161 0 0 0
162 1 1.0772173450 6.4633040701 1.0772173450 0 1.000000 162 0 0 0
1162 3 1.0772173519 6.4633040785 1.0772173548 0 0.010000 162 0 0 0
163 1 1.0772173450 6.4633040701 2.1544346900 0 1.000000 163 0 0 0
1163 3 1.0772173456 6.4633040795 2.1544346996 0 0.010000 163 0 0 0
164 1 1.0772173450 6.4633040701 3.2316520350 0 1.000000 164 0 0 0
1164 3 1.0772173470 6.4633040729 3.2316520361 0 0.010000 164 0 0 0
165 1 1.0772173450 6.4633040701 4.3088693801 0 1.000000 165 0 0 0
1165 3 1.0772173513 6.4633040727 4.3088693898 0 0.010000 165 0 0 0
166 1 1.0772173450 6.4633040701 5.3860867251 0 1.000000 166 0 0 0
1166 3 1.0772173470 6.4633040719 5.3860867292 0 0.010000 166 0 0 0
167 1 1.0772173450 6.4633040701 6.4633040701 0 1.000000 167 0 0 0
1167 3 1.0772173460 6.4633040759 6.4633040769 0 0.010000 167 0 0 0
168 1 1.0772173450 6.4633040701 7.5405214151 0 1.000000 168 0 0 0
1168 3 1.0772173466 6.4633040711 7.5405214194 0 0.010000 168 0 0 0
169 1 1.0772173450 6.4633040701 8.6177387601 0 1.000000 169 0 0 0
1169 3 1.0772173501 6.4633040748 8.6177387665 0 0.010000 169 0 0 0
170 1 1.0772173450 6.4633040701 9.6949561051 0 1.000000 170 0 0 0
1170 3 1.0772173509 6.4633040786 9.6949561093 0 0.010000 170 0 0 0
171 1 1.0772173450 7.5405214151 0.0000000000 0 1.000000 171 0 0 0
1171 3 1.0772173506 7.5405214231 0.0000000066 0 0.010000 171 0 0 0
172 1 1.0772173450 7.5405214151 1.0772173450 0 1.000000 172 0 0 0
1172 3 1.0772173499 7.5405214177 1.0772173475 0 0.010000 172 0 0 0
173 1 1.0772173450 7.5405214151 2.1544346900 0 1.000000 173 0 0 0
1173 3 1.0772173467 7.5405214153 2.1544346976 0 0.010000 173 0 0 0
174 1 1.0772173450 7.5405214151 3.2316520350 0 1.000000 174 0 0 0
1174 3 1.0772173503 7.5405214216 3.2316520398 0 0.010000 174 0 0 0
175 1 1.0772173450 7.5405214151 4.3088693801 0 1.000000 175 0 0 0
1175 3 1.0772173470 7.5405214248 4.3088693833 0 0.010000 175 0 0 0
176 1 1.0772173450 7.5405214151 5.3860867251 0 1.000000 176 0 0 0
1176 3 1.0772173534 7.5405214188 5.3860867303 0 0.010000 176 0 0 0
177 1 1.0772173450 7.5405214151 6.4633040701 0 1.000000 177 0 0 0
1177 3 1.0772173500 7.5405214172 6.4633040762 0 0.010000 177 0 0 0
178 1 1.0772173450 7.5405214151 7.5405214151 0 1.000000 178 0 0 0
1178 3 1.0772173478 7.5405214248 7.5405214239 0 0.010000 178 0 0 0
179 1 1.0772173450 7.5405214151 8.6177387601 0 1.000000 179 0 0 0
1179 3 1.0772173505 7.5405214226 8.6177387648 0 0.010000 179 0 0 0
180 1 1.0772173450 7.5405214151 9.6949561051 0 1.000000 180 0 0 0
1180 3 1.0772173489 7.5405214175 9.6949561114 0 0.010000 180 0 0 0
181 1 1.0772173450 8.6177387601 0.0000000000 0 1.000000 181 0 0 0
1181 3 1.0772173487 8.6177387630 0.0000000036 0 0.010000 181 0 0 0
182 1 1.0772173450 8.6177387601 1.0772173450 0 1.000000 182 0 0 0
1182 3 1.0772173537 8.6177387624 1.0772173499 0 0.010000 182 0 0 0
183 1 1.0772173450 8.6177387601 2.1544346900 0 1.000000 183 0 0 0
1183 3 1.0772173495 8.6177387691 2.1544346906 0 0.010000 183 0 0 0
184 1 1.0772173450 8.6177387601 3.2316520350 0 1.000000 184 0 0 0
1184 3 1.0772173512 8.6177387615 3.2316520379 0 0.010000 184 0 0 0
185 1 1.0772173450 8.6177387601 4.3088693801 0 1.000000 185 0 0 0
1185 3 1.0772173475 8.6177387629 4.3088693848 0 0.010000 185 0 0 0
186 1 1.0772173450 8.6177387601 5.3860867251 0 1.000000 186 0 0 0
1186 3 1.0772173473 8.6177387620 5.3860867325 0 0.010000 186 0 0 0
187 1 1.0772173450 8.6177387601 6.4633040701 0 1.000000 187 0 0 0
1187 3 1.0772173490 8.6177387659 6.4633040796 0 0.010000 187 0 0 0
188 1 1.0772173450 8.6177387601 7.5405214151 0 1.000000 188 0 0 0
1188 3 1.0772173486 8.6177387688 7.5405214215 0 0.010000 188 0 0 0
189 1 1.0772173450 8.6177387601 8.6177387601 0 1.000000 189 0 0 0
1189 3 1.0772173491 8.6177387651 8.6177387606 0 0.010000 189 0 0 0
190 1 1.0772173450 8.6177387601 9.6949561051 0 1.000000 190 0 0 0
1190 3 1.0772173504 8.6177387656 9.6949561108 0 0.010000 190 0 0 0
191 1 1.0772173450 9.6949561051 0.0000000000 0 1.000000 191 0 0 0
1191 3 1.0772173466 9.6949561070 0.0000000073 0 0.010000 191 0 0 0
192 1 1.0772173450 9.6949561051 1.0772173450 0 1.000000 192 0 0 0
1192 3 1.0772173475 9.6949561096 1.0772173507 0 0.010000 192 0 0 0
193 1 1.0772173450 9.6949561051 2.1544346900 0 1.000000 193 0 0 0
1193 3 1.0772173508 9.6949561128 2.1544346945 0 0.010000 193 0 0 0
194 1 1.0772173450 9.6949561051 3.2316520350 0 1.000000 194 0 0 0
1194 3 1.0772173519 9.6949561123 3.2316520437 0 0.010000 194 0 0 0
195 1 1.0772173450 9.6949561051 4.3088693801 0 1.000000 195 0 0 0
1195 3 1.0772173526 9.6949561076 4.3088693890 0 0.010000 195 0 0 0
196 1 1.0772173450 9.6949561051 5.3860867251 0 1.000000 196 0 0 0
1196 3 1.0772173538 9.6949561077 5.3860867348 0 0.010000 196 0 0 0
197 1 1.0772173450 9.6949561051 6.4633040701 0 1.000000 197 0 0 0
1197 3 1.0772173467 9.6949561138 6.4633040779 0 0.010000 197 0 0 0
198 1 1.0772173450 9.6949561051 7.5405214151 0 1.000000 198 0 0 0
1198 3 1.0772173537 9.6949561093 7.5405214239 0 0.010000 198 0 0 0
199 1 1.0772173450 9.6949561051 8.6177387601 0 1.000000 199 0 0 0
1199 3 1.0772173496 9.6949561055 8.6177387604 0 0.010000 199 0 0 0
200 1 1.0772173450 9.6949561051 9.6949561051 0 1.000000 200 0 0 0
1200 3 1.0772173512 9.6949561098 9.6949561150 0 0.010000 200 0 0 0
201 1 2.1544346900 0.0000000000 0.0000000000 0 1.000000 201 0 0 0
1201 3 2.1544346956 0.0000000062 0.0000000017 0 0.010000 201 0 0 0
202 1 2.1544346900 0.0000000000 1.0772173450 0 1.000000 202 0 0 0
1202 3 2.1544346931 0.0000000099 1.0772173502 0 0.010000 202 0 0 0
203 1 2.1544346900 0.0000000000 2.1544346900 0 1.000000 203 0 0 0
1203 3 2.1544346972 0.0000000055 2.1544346948 0 0.010000 203 0 0 0
204 1 2.1544346900 0.0000000000 3.2316520350 0 1.000000 204 0 0 0
1204 3 2.1544346977 0.0000000055 3.2316520412 0 0.010000 204 0 0 0
205 1 2.1544346900 0.0000000000 4.3088693801 0 1.000000 205 0 0 0
1205 3 2.1544346930 0.0000000088 4.3088693887 0 0.010000 205 0 0 0
206 1 2.1544346900 0.0000000000 5.3860867251 0 1.000000 206 0 0 0
1206 3 2.1544346927 0.0000000049 5.3860867310 0 0.010000 206 0 0 0
207 1 2.1544346900 0.0000000000 6.4633040701 0 1.000000 207 0 0 0
1207 3 2.1544346982 0.0000000010 6.4633040710 0 0.010000 207 0 0 0
208 1 2.1544346900 0.0000000000 7.5405214151 0 1.000000 208 0 0 0
1208 3 2.1544346946 0.0000000066 7.5405214212 0 0.010000 208 0 0 0
209 1 2.1544346900 0.0000000000 8.6177387601 0 1.000000 209 0 0 0
1209 3 2.1544346934 0.0000000037 8.6177387664 0 0.010000 209 0 0 0
210 1 2.1544346900 0.0000000000 9.6949561051 0 1.000000 210 0 0 0
1210 3 2.1544346962 0.0000000014 9.6949561144 0 0.010000 210 0 0 0
211 1 2.1544346900 1.0772173450 0.0000000000 0 1.000000 211 0 0 0
1211 3 2.1544346958 1.0772173490 0.0000000011 0 0.010000 211 0 0 0
212 1 2.1544346900 1.0772173450 1.0772173450 0 1.000000 212 0 0 0
1212 3 2.1544346966 1.0772173473 1.0772173498 0 0.010000 212 0 0 0
213 1 2.1544346900 1.0772173450 2.1544346900 0 1.000000 213 0 0 0
1213 3 2.1544346991 1.0772173550 2.1544346994 0 0.010000 213 0 0 0
214 1 2.1544346900 1.0772173450 3.2316520350 0 1.000000 214 0 0 0
1214 3 2.1544346946 1.0772173453 3.2316520389 0 0.010000 214 0 0 0
215 1 2.1544346900 1.0772173450 4.3088693801 0 1.000000 215 0 0 0
1215 3 2.1544346945 1.0772173536 4.3088693890 0 0.010000 215 0 0 0
216 1 2.1544346900 1.0772173450 5.3860867251 0 1.000000 216 0 0 0
1216 3 2.1544346949 1.0772173524 5.3860867303 0 0.010000 216 0 0 0
217 1 2.1544346900 1.0772173450 6.4633040701 0 1.000000 217 0 0 0
1217 3 2.1544346938 1.0772173494 6.4633040796 0 0.010000 217 0 0 0
218 1 2.1544346900 1.0772173450 7.5405214151 0 1.000000 218 0 0 0
1218 3 2.1544346945 1.0772173501 7.5405214237 0 0.010000 218 0 0 0
219 1 2.1544346900 1.0772173450 8.6177387601 0 1.000000 219 0 0 0
1219 3 2.1544346994 1.0772173481 8.6177387622 0 0.010000 219 0 0 0
220 1 2.1544346900 1.0772173450 9.6949561051 0 1.000000 220 0 0 0
1220 3 2.1544346922 1.0772173529 9.6949561059 0 0.010000 220 0 0 0
221 1 2.1544346900 2.1544346900 0.0000000000 0 1.000000 221 0 0 0
1221 3 2.1544346908 2.1544346934 0.0000000061 0 0.010000 221 0 0 0
222 1 2.1544346900 2.1544346900 1.0772173450 0 1.000000 222 0 0 0
1222 3 2.1544346990 2.1544346960 1.0772173520 0 0.010000 222 0 0 0
223 1 2.1544346900 2.1544346900 2.1544346900 0 1.000000 223 0 0 0
1223 3 2.1544346970 2.1544346956 2.1544346997 0 0.010000 223 0 0 0
224 1 2.1544346900 2.1544346900 3.2316520350 0 1.000000 224 0 0 0
1224 3 2.1544346929 2.1544346922 3.2316520374 0 0.010000 224 0 0 0
225 1 2.1544346900 2.1544346900 4.3088693801 0 1.000000 225 0 0 0
1225 3 2.1544346926 2.1544346911 4.3088693862 0 0.010000 225 0 0 0
226 1 2.1544346900 2.1544346900 5.3860867251 0 1.000000 226 0 0 0
1226 3 2.1544346902 2.1544346998 5.3860867270 0 0.010000 226 0 0 0
227 1 2.1544346900 2.1544346900 6.4633040701 0 1.000000 227 0 0 0