LAMMPS data file

8750 atoms
3 atom types
6750 ellipsoids
1000 bonds
1 bond types

0.0 123.237575 xlo xhi
0.0 82.158384 ylo yhi
0.0 82.158384 zlo zhi

Atoms

1 1 50.4622144233 42.2744083454 42.1562008831 0 1.909859 1 0 0 0
2 1 51.0294993946 42.0160547021 40.8329623873 0 1.909859 2 0 0 0
3 1 49.7057514798 41.4646640075 41.1229290291 0 1.909859 3 0 0 0
4 1 48.8450109752 41.1367350861 40.0352742994 0 1.909859 4 0 0 0
5 1 50.1118065695 40.8833221606 39.4840641328 0 1.909859 5 0 0 0
6 1 50.9008162719 40.1152374454 38.5364278829 0 1.909859 6 0 0 0
7 1 51.7979026179 40.6030908163 39.5447828190 0 1.909859 7 0 0 0
8 1 51.4460283209 39.4116455773 40.3093436839 0 1.909859 8 0 0 0
9 1 52.0255404593 39.9141629669 41.4897048867 0 1.909859 9 0 0 0
10 1 51.3183161673 38.6947691304 41.7087060035 0 1.909859 10 0 0 0
11 1 51.2979910267 37.2965498917 41.0845033978 0 1.909859 11 0 0 0
12 1 52.6295964007 37.5661713086 40.9191334328 0 1.909859 12 0 0 0
13 1 53.3285212554 36.5643420839 41.8117866163 0 1.909859 13 0 0 0
14 1 54.5896508839 37.1132760249 41.6329888843 0 1.909859 14 0 0 0
15 1 55.1707856281 35.9529968081 40.9629117494 0 1.909859 15 0 0 0
16 1 55.3195960692 36.0531092968 39.4875616975 0 1.909859 16 0 0 0
17 1 54.8049142058 35.0600867249 38.5068610345 0 1.909859 17 0 0 0
18 1 53.2848924201 34.8665003269 38.5284628104 0 1.909859 18 0 0 0
19 1 52.0092607019 34.8151248559 37.9167623921 0 1.909859 19 0 0 0
20 1 52.3693120715 36.3146354909 37.7836144850 0 1.909859 20 0 0 0
21 1 52.8155781409 36.3677548915 36.4534032547 0 1.909859 21 0 0 0
22 1 52.7881331930 34.9961572769 35.7690977981 0 1.909859 22 0 0 0
23 1 52.5363631714 35.7511284197 34.5807130051 0 1.909859 23 0 0 0
24 1 52.7552799517 34.8359669501 33.5285158150 0 1.909859 24 0 0 0
25 1 52.5161478399 34.5376192145 32.0821345711 0 1.909859 25 0 0 0
26 1 52.9136032403 33.3878430094 31.2396666353 0 1.909859 26 0 0 0
27 1 53.2802687403 33.2164507301 29.9957336761 0 1.909859 27 0 0 0
28 1 53.1929696709 32.4549000921 28.7267809725 0 1.909859 28 0 0 0
29 1 53.3152779328 31.0553641752 28.5960003570 0 1.909859 29 0 0 0
30 1 53.4044285762 29.5696544020 28.9407183818 0 1.909859 30 0 0 0
31 1 53.2531593902 28.2349910324 28.3967985907 0 1.909859 31 0 0 0
32 1 54.2657594361 28.8043700515 27.4644038344 0 1.909859 32 0 0 0
33 1 55.4919714614 29.1492345259 27.7314363409 0 1.909859 33 0 0 0
34 1 55.9948427140 28.5914760368 28.8980879291 0 1.909859 34 0 0 0
35 1 57.2908801219 28.8249775475 28.4455382339 0 1.909859 35 0 0 0
36 1 57.7043313890 30.1757355725 28.7454604884 0 1.909859 36 0 0 0
37 1 57.6160704815 31.0421211696 29.7581717537 0 1.909859 37 0 0 0
38 1 58.6604117652 31.8579618832 28.9782457202 0 1.909859 38 0 0 0
39 1 59.5652457863 32.1288808241 30.2799531822 0 1.909859 39 0 0 0
40 1 59.6104543039 33.1250062169 31.2257796440 0 1.909859 40 0 0 0
41 1 60.4747559697 32.1502269912 31.9201656843 0 1.909859 41 0 0 0
42 1 60.9923919293 31.4399861530 33.1851809822 0 1.909859 42 0 0 0
43 1 61.7130631648 32.0001651362 34.2516472941 0 1.909859 43 0 0 0
44 1 61.2818782978 33.2540912283 33.3844854273 0 1.909859 44 0 0 0
45 1 60.9345832189 34.2794353632 34.3332051753 0 1.909859 45 0 0 0
46 1 60.0340933782 34.8415201038 33.2929253603 0 1.909859 46 0 0 0
47 1 58.6796930044 34.8589171890 33.5329264453 0 1.909859 47 0 0 0
48 1 58.4357487554 35.5054111329 32.2495584903 0 1.909859 48 0 0 0
49 1 59.0909948000 36.4210242696 33.4631407428 0 1.909859 49 0 0 0
50 1 59.0513674689 37.7748007930 33.8160318683 0 1.909859 50 0 0 0
51 1 59.2358126607 37.7041155835 32.2470535601 0 1.909859 51 0 0 0
52 1 58.5475958852 38.9381548867 32.6576349269 0 1.909859 52 0 0 0
53 1 59.9169151144 39.3253619863 32.5381770805 0 1.909859 53 0 0 0
54 1 61.2103962191 38.8280642301 32.2477261510 0 1.909859 54 0 0 0
55 1 62.3975348246 38.7217636620 31.6092123163 0 1.909859 55 0 0 0
56 1 63.1591265404 39.5715034845 32.4948660106 0 1.909859 56 0 0 0
57 1 64.3867169900 39.7743987534 31.8196517996 0 1.909859 57 0 0 0
58 1 65.2406676714 40.8507633605 31.9232775225 0 1.909859 58 0 0 0
59 1 65.0096206215 41.6553949514 30.7823501022 0 1.909859 59 0 0 0
60 1 63.9107528081 42.3769083403 30.3787585467 0 1.909859 60 0 0 0
61 1 63.2220366613 42.8384656934 29.2496636019 0 1.909859 61 0 0 0
62 1 62.4440343634 43.9545989572 28.6348764714 0 1.909859 62 0 0 0
63 1 61.2325483318 43.7842982062 27.8948261249 0 1.909859 63 0 0 0
64 1 61.3045920108 43.4123910045 26.3696041839 0 1.909859 64 0 0 0
65 1 61.7657337140 43.4521892033 25.0246643528 0 1.909859 65 0 0 0
66 1 60.7873455818 44.3514511031 25.4198360518 0 1.909859 66 0 0 0
67 1 60.0341010969 43.8622443401 24.0884530790 0 1.909859 67 0 0 0
68 1 58.9272382759 44.6188549631 24.1727466676 0 1.909859 68 0 0 0
69 1 58.6464407085 44.1168817509 25.5067843700 0 1.909859 69 0 0 0
70 1 59.4290581676 44.0328989247 26.5874073905 0 1.909859 70 0 0 0
71 1 59.3987987914 45.3435826436 26.8768385374 0 1.909859 71 0 0 0
72 1 59.9895352847 46.7036639327 27.0257426210 0 1.909859 72 0 0 0
73 1 61.0568514296 47.1244458095 27.7474214465 0 1.909859 73 0 0 0
74 1 62.1892547829 46.6739771017 26.7539109078 0 1.909859 74 0 0 0
75 1 62.3041185581 47.8067023063 25.7124286958 0 1.909859 75 0 0 0
76 1 62.2742128894 48.4429968254 26.9757259449 0 1.909859 76 0 0 0
77 1 61.3727767314 49.1583265821 28.0423246525 0 1.909859 77 0 0 0
78 1 61.2221433471 47.8131483047 28.2336440182 0 1.909859 78 0 0 0
79 1 60.7917337882 46.7146336315 28.9478538833 0 1.909859 79 0 0 0
80 1 62.1627057105 46.6336984164 29.4780919922 0 1.909859 80 0 0 0
81 1 61.7255877773 45.9308703548 30.6584284976 0 1.909859 81 0 0 0
82 1 62.5487283740 46.2107323269 31.6769185680 0 1.909859 82 0 0 0
83 1 62.5996482297 47.4690616913 32.2484116674 0 1.909859 83 0 0 0
84 1 63.5939727679 47.5388999653 31.3080762346 0 1.909859 84 0 0 0
85 1 63.5120614857 48.8416294431 31.5366545934 0 1.909859 85 0 0 0
86 1 64.6171880370 49.1437786835 32.4256598105 0 1.909859 86 0 0 0
87 1 64.2595619218 49.0252973911 33.8384081071 0 1.909859 87 0 0 0
88 1 63.8483115603 48.2647079732 35.0494829079 0 1.909859 88 0 0 0
89 1 64.6152687994 47.5432923050 34.1701665624 0 1.909859 89 0 0 0
90 1 65.6445034056 47.0181337482 34.6845520889 0 1.909859 90 0 0 0
91 1 66.7143032636 47.5199402947 35.3961991680 0 1.909859 91 0 0 0
92 1 67.9589749637 47.8858692820 35.3470251108 0 1.909859 92 0 0 0
93 1 68.8187870993 47.2250054846 36.4324871929 0 1.909859 93 0 0 0
94 1 68.0051174593 47.3240437398 37.4506201051 0 1.909859 94 0 0 0
95 1 68.7189071674 47.6522203401 38.6651284337 0 1.909859 95 0 0 0
96 1 67.3156020604 47.6319888926 38.4837460499 0 1.909859 96 0 0 0
97 1 67.6245986628 47.5648582958 39.8966625913 0 1.909859 97 0 0 0
98 1 68.5712038499 46.4415284036 40.1228257841 0 1.909859 98 0 0 0
99 1 68.2113626668 46.4088029373 41.4523393928 0 1.909859 99 0 0 0
100 1 68.6234334939 45.1099560619 41.5008655356 0 1.909859 100 0 0 0
101 1 69.7061536219 44.6249382617 42.3071271609 0 1.909859 101 0 0 0
102 1 70.7218839653 43.6566551594 41.8713453253 0 1.909859 102 0 0 0
103 1 71.1365845806 44.4169397732 43.1200875350 0 1.909859 103 0 0 0
104 1 72.2934908313 43.6014244387 43.2346709542 0 1.909859 104 0 0 0
105 1 73.2179304519 42.6715936849 42.8735804666 0 1.909859 105 0 0 0
106 1 73.5643201925 41.8123100097 41.9275546087 0 1.909859 106 0 0 0
107 1 74.3008774385 40.6302368985 41.8670861837 0 1.909859 107 0 0 0
108 1 74.3866082263 41.0911411365 40.4392852286 0 1.909859 108 0 0 0
109 1 75.4885276979 40.8166267848 39.7745549086 0 1.909859 109 0 0 0
110 1 75.0350092293 42.0868019625 40.0096937405 0 1.909859 110 0 0 0
111 1 75.3669255477 42.0681493371 38.5915397832 0 1.909859 111 0 0 0
112 1 75.1070486821 41.9617328400 37.0722332080 0 1.909859 112 0 0 0
113 1 74.4164867421 41.2623563504 36.0484567041 0 1.909859 113 0 0 0
114 1 74.9587421398 40.3544053298 35.0126879027 0 1.909859 114 0 0 0
115 1 75.0371864978 38.8207190817 34.9202275356 0 1.909859 115 0 0 0
116 1 75.2658720331 37.4201477248 35.1508335208 0 1.909859 116 0 0 0
117 1 76.2336510102 36.2511848178 35.5848005725 0 1.909859 117 0 0 0
118 1 74.9491927688 36.2071098160 36.1064951401 0 1.909859 118 0 0 0
119 1 74.5927904627 36.6023623633 37.3623191998 0 1.909859 119 0 0 0
120 1 74.6304599769 35.3791206971 38.1988038388 0 1.909859 120 0 0 0
121 1 75.6181438120 34.5887006626 37.8384761267 0 1.909859 121 0 0 0
122 1 74.9633869426 33.5135917519 38.3445864134 0 1.909859 122 0 0 0
123 1 74.6661519599 34.1647181457 39.5560154381 0 1.909859 123 0 0 0
124 1 74.7152768401 33.3280113909 40.7107872276 0 1.909859 124 0 0 0
125 1 74.5411994547 31.9475867055 41.0241917962 0 1.909859 125 0 0 0
126 1 75.1871967013 32.4659892208 42.2565359405 0 1.909859 126 0 0 0
127 1 76.1447718724 31.4971604731 42.1380335094 0 1.909859 127 0 0 0
128 1 75.6007804207 31.1235630938 43.3233002001 0 1.909859 128 0 0 0
129 1 74.3119150533 31.6830372662 42.6878755322 0 1.909859 129 0 0 0
130 1 74.2482830514 30.9798153984 43.9270934055 0 1.909859 130 0 0 0
131 1 73.1287945156 31.2888598013 44.7576839959 0 1.909859 131 0 0 0
132 1 72.4721051904 30.7837131160 43.6221509147 0 1.909859 132 0 0 0
133 1 73.6303918781 30.0893602737 43.0565374444 0 1.909859 133 0 0 0
134 1 73.4990234272 29.3435154198 44.1984676239 0 1.909859 134 0 0 0
135 1 73.9347423906 29.6396091639 45.5602679429 0 1.909859 135 0 0 0
136 1 74.2474237678 28.2880857274 45.9242408226 0 1.909859 136 0 0 0
137 1 73.8787274431 27.9664139538 44.4891772871 0 1.909859 137 0 0 0
138 1 72.5945853315 27.3810094999 44.4580220135 0 1.909859 138 0 0 0
139 1 71.2430287571 27.3277068676 44.9386451697 0 1.909859 139 0 0 0
140 1 69.8779168455 27.1818734994 44.9580081594 0 1.909859 140 0 0 0
141 1 68.5219161627 27.3965802512 44.7648367762 0 1.909859 141 0 0 0
142 1 67.1776525624 27.2036408850 45.0547343958 0 1.909859 142 0 0 0
143 1 66.2997548248 28.2170223269 44.5765080878 0 1.909859 143 0 0 0
144 1 66.4110397285 28.2783606189 43.2653021153 0 1.909859 144 0 0 0
145 1 65.7623254307 29.5093359259 43.0420260664 0 1.909859 145 0 0 0
146 1 65.0418741140 30.6703506054 42.6474238704 0 1.909859 146 0 0 0
147 1 66.0983655181 30.2531419333 41.7462044737 0 1.909859 147 0 0 0
148 1 66.1020050608 29.2934633886 40.7834695204 0 1.909859 148 0 0 0
149 1 66.1450325305 27.9646912496 40.7224862657 0 1.909859 149 0 0 0
150 1 65.5236889859 27.9957987845 42.0956450461 0 1.909859 150 0 0 0
151 1 64.9649069344 26.8708672886 41.8201244423 0 1.909859 151 0 0 0
152 1 66.3590273649 26.5025364760 41.4227245489 0 1.909859 152 0 0 0
153 1 67.7863119864 26.3398483154 41.4462956382 0 1.909859 153 0 0 0
154 1 67.5474706044 27.7477951132 41.4264430558 0 1.909859 154 0 0 0
155 1 68.8210741683 27.8259722927 41.0607787007 0 1.909859 155 0 0 0
156 1 69.0726672150 29.1759366152 40.8320644039 0 1.909859 156 0 0 0
157 1 68.1787887184 30.1099454482 41.0587910183 0 1.909859 157 0 0 0
158 1 68.5911806739 30.7896988106 39.8604789338 0 1.909859 158 0 0 0
159 1 68.6534021740 30.7009799265 38.4779769139 0 1.909859 159 0 0 0
160 1 69.2456240524 31.9625622250 38.3532843016 0 1.909859 160 0 0 0
161 1 69.9189334746 33.2169939446 38.2392910405 0 1.909859 161 0 0 0
162 1 68.9713127580 34.4577730704 38.5379789003 0 1.909859 162 0 0 0
163 1 69.5431293333 35.7458134820 38.7233507135 0 1.909859 163 0 0 0
164 1 70.0541531180 36.1455213514 37.4160889398 0 1.909859 164 0 0 0
165 1 69.1656960588 36.8528497369 38.0839656514 0 1.909859 165 0 0 0
166 1 68.0613896069 36.5861500723 39.0816210925 0 1.909859 166 0 0 0
167 1 68.7482726957 35.9579234752 39.9761183643 0 1.909859 167 0 0 0
168 1 67.7720651748 36.3034382217 41.0150050326 0 1.909859 168 0 0 0
169 1 66.2471751818 36.2070141002 41.3033637976 0 1.909859 169 0 0 0
170 1 65.0062125814 35.7708349480 40.6238869195 0 1.909859 170 0 0 0
171 1 65.0400211450 35.7464395966 42.0814933014 0 1.909859 171 0 0 0
172 1 64.5600988807 34.5427556094 42.7201699640 0 1.909859 172 0 0 0
173 1 63.5506982799 35.0096215963 43.7436827067 0 1.909859 173 0 0 0
174 1 63.1653889613 35.5002643399 42.5839541576 0 1.909859 174 0 0 0
175 1 61.8614466070 35.1640152993 42.4613770862 0 1.909859 175 0 0 0
176 1 61.0593537466 36.3993225694 42.7532079556 0 1.909859 176 0 0 0
177 1 61.3401776573 36.7446467090 43.9992556684 0 1.909859 177 0 0 0
178 1 61.4003390962 37.5030953665 42.8183195348 0 1.909859 178 0 0 0
179 1 62.7455747671 37.0057677519 43.0796769811 0 1.909859 179 0 0 0
180 1 62.4694329053 38.3603751977 43.4374546145 0 1.909859 180 0 0 0
181 1 63.0721389424 39.4336398189 44.0578082261 0 1.909859 181 0 0 0
182 1 64.0784978679 38.5321550874 43.8001847904 0 1.909859 182 0 0 0
183 1 63.6352389176 38.1282430865 45.1047852277 0 1.909859 183 0 0 0
184 1 63.9866184007 36.8660891284 45.8424797526 0 1.909859 184 0 0 0
185 1 64.4530589157 36.7841300644 47.0828193090 0 1.909859 185 0 0 0
186 1 65.3527356170 36.0317824787 46.3838427029 0 1.909859 186 0 0 0
187 1 65.9572441391 34.9072840912 46.0784073960 0 1.909859 187 0 0 0
188 1 66.1931122838 34.0630849490 47.2707331525 0 1.909859 188 0 0 0
189 1 64.8642870504 33.8827532939 46.7783202443 0 1.909859 189 0 0 0
190 1 63.5649581584 34.2649642296 46.2743617823 0 1.909859 190 0 0 0
191 1 63.7399816915 35.0191130231 45.1847049556 0 1.909859 191 0 0 0
192 1 62.6592801974 35.7313648495 45.2863708681 0 1.909859 192 0 0 0
193 1 61.5755017306 35.2932410868 46.1343749308 0 1.909859 193 0 0 0
194 1 61.7135733979 33.8831971037 45.8768885239 0 1.909859 194 0 0 0
195 1 61.1607276805 34.4329876136 44.6235870070 0 1.909859 195 0 0 0
196 1 60.9026744793 33.2418747293 43.9851600614 0 1.909859 196 0 0 0
197 1 60.1152908793 33.1077898362 45.1221834835 0 1.909859 197 0 0 0
198 1 58.7433021216 32.2738351102 45.2100563245 0 1.909859 198 0 0 0
199 1 57.4224550813 32.3747158068 45.4668086357 0 1.909859 199 0 0 0
200 1 56.9476769821 31.7447945117 44.3012252856 0 1.909859 200 0 0 0
201 1 56.3313757510 31.0681018954 43.2194290122 0 1.909859 201 0 0 0
202 1 57.3046100121 30.3446388715 44.0070253637 0 1.909859 202 0 0 0
203 1 58.0525212223 29.3059972086 44.9042760280 0 1.909859 203 0 0 0
204 1 59.1762989755 28.8754785404 43.9063457836 0 1.909859 204 0 0 0
205 1 59.5974803848 27.8332018261 43.1255181014 0 1.909859 205 0 0 0
206 1 60.3305817781 27.1648841118 42.2411470375 0 1.909859 206 0 0 0
207 1 60.4531585065 26.3264898862 40.9204818584 0 1.909859 207 0 0 0
208 1 59.5247295183 25.4098585400 40.3095929385 0 1.909859 208 0 0 0
209 1 59.9349269649 24.4768233734 39.4712691431 0 1.909859 209 0 0 0
210 1 60.0721118958 25.1079492319 38.2990109771 0 1.909859 210 0 0 0
211 1 59.5372383217 25.7570807886 37.0958749486 0 1.909859 211 0 0 0
212 1 60.2843312296 26.5335517777 36.2625301011 0 1.909859 212 0 0 0
213 1 60.9365729891 26.8250183513 35.0001145748 0 1.909859 213 0 0 0
214 1 59.7763226742 26.4197981131 34.2323268017 0 1.909859 214 0 0 0
215 1 59.5461471322 26.3006655587 32.9092299346 0 1.909859 215 0 0 0
216 1 60.8357064844 26.9348859968 32.6870325959 0 1.909859 216 0 0 0
217 1 61.0735305860 25.7078906000 32.9948894853 0 1.909859 217 0 0 0
218 1 62.4255457590 25.7240534704 33.3583327006 0 1.909859 218 0 0 0
219 1 61.9073605627 27.1394185660 33.7461082322 0 1.909859 219 0 0 0
220 1 63.0297984323 26.8634432957 34.4150972410 0 1.909859 220 0 0 0
221 1 62.6510430811 25.6895799825 35.1056636158 0 1.909859 221 0 0 0
222 1 62.9682908124 24.5265968897 35.6473463881 0 1.909859 222 0 0 0
223 1 63.5240309641 24.0318794170 36.7120109267 0 1.909859 223 0 0 0
224 1 63.2406177283 25.2279747849 37.4843936837 0 1.909859 224 0 0 0
225 1 62.1162291014 26.1680345235 37.5152103259 0 1.909859 225 0 0 0
226 1 61.8020398553 26.4359448745 38.8674393604 0 1.909859 226 0 0 0
227 1 62.1600086886 27.7107149704 38.2944997794 0 1.909859 227 0 0 0
228 1 61.9075179064 28.6486102175 37.3761129735 0 1.909859 228 0 0 0
229 1 62.2144066229 30.0387279708 37.7761137726 0 1.909859 229 0 0 0
230 1 60.7835879648 30.0206388814 37.9407669209 0 1.909859 230 0 0 0
231 1 60.4139178347 29.9077549441 36.5882501085 0 1.909859 231 0 0 0
232 1 60.4784873658 30.8148411695 35.5678062637 0 1.909859 232 0 0 0
233 1 61.5501810140 31.7855935101 35.9947432703 0 1.909859 233 0 0 0
234 1 61.4166535930 33.0125437721 35.4242799148 0 1.909859 234 0 0 0
235 1 62.3699105742 33.8830666473 36.3078051078 0 1.909859 235 0 0 0
236 1 63.0512405094 32.6383676914 36.1333073939 0 1.909859 236 0 0 0
237 1 63.2194954886 32.7480443871 37.5367483062 0 1.909859 237 0 0 0
238 1 63.0962128963 31.9401598909 38.6083459092 0 1.909859 238 0 0 0
239 1 61.7804992688 32.5484673256 39.2676443529 0 1.909859 239 0 0 0
240 1 60.8755906533 33.4825330730 38.8263076078 0 1.909859 240 0 0 0
241 1 59.8768844726 33.1161481332 39.7739904318 0 1.909859 241 0 0 0
242 1 59.0469563493 34.2157749032 40.0341302182 0 1.909859 242 0 0 0
243 1 57.8735238689 34.8938383523 40.0959386461 0 1.909859 243 0 0 0
244 1 58.4953933778 34.3081751071 38.8275609735 0 1.909859 244 0 0 0
245 1 58.0948592104 34.8528995476 37.6439605964 0 1.909859 245 0 0 0
246 1 59.1097963745 35.7743741256 37.1982344729 0 1.909859 246 0 0 0
247 1 60.6510988369 36.1458184397 37.0992250706 0 1.909859 247 0 0 0
248 1 60.6209724255 37.5235707442 36.8117774658 0 1.909859 248 0 0 0
249 1 60.5174054088 38.8485601677 36.2045327219 0 1.909859 249 0 0 0
250 1 60.3886409575 40.2227215199 36.6622100698 0 1.909859 250 0 0 0
251 1 59.6499526909 41.2958171267 37.2592701506 0 1.909859 251 0 0 0
252 1 59.9067813955 40.4584997183 38.4479222611 0 1.909859 252 0 0 0
253 1 58.8436299120 41.2009729389 39.0302561796 0 1.909859 253 0 0 0
254 1 57.5297677628 40.5957973331 39.1665833021 0 1.909859 254 0 0 0
255 1 57.6622317418 39.4815562379 40.1494764542 0 1.909859 255 0 0 0
256 1 57.4600162487 40.7022619083 40.8997041934 0 1.909859 256 0 0 0
257 1 56.7304491521 41.7759353079 40.4883201942 0 1.909859 257 0 0 0
258 1 57.1121169879 42.8052421757 39.6262952553 0 1.909859 258 0 0 0
259 1 57.0768096054 43.4836577689 38.2774250409 0 1.909859 259 0 0 0
260 1 56.1440085296 44.5395589280 38.5381067057 0 1.909859 260 0 0 0
261 1 54.9471013045 43.9121160030 38.3837320615 0 1.909859 261 0 0 0
262 1 54.9102223663 44.9232984933 37.3742728866 0 1.909859 262 0 0 0
263 1 55.6572355030 45.1731768240 36.2031222676 0 1.909859 263 0 0 0
264 1 56.6572416009 46.0483080919 36.8830545415 0 1.909859 264 0 0 0
265 1 56.6581310825 47.1564047931 37.8696644140 0 1.909859 265 0 0 0
266 1 58.1595101764 47.0514811519 37.6822671950 0 1.909859 266 0 0 0
267 1 58.6697268707 47.5266449846 36.5015052403 0 1.909859 267 0 0 0
268 1 57.5119368581 47.5326967566 35.7731459049 0 1.909859 268 0 0 0
269 1 58.0626815172 48.0233703442 34.5482461395 0 1.909859 269 0 0 0
270 1 59.1566487891 47.7255194208 35.3954716960 0 1.909859 270 0 0 0
271 1 59.8517837574 48.9818042494 35.1034222830 0 1.909859 271 0 0 0
272 1 61.2434340667 49.1486198171 35.3237242030 0 1.909859 272 0 0 0
273 1 61.2771818615 50.1506402692 36.4704812313 0 1.909859 273 0 0 0
274 1 60.8848076874 51.2402375155 37.2642954111 0 1.909859 274 0 0 0
275 1 61.9519939853 50.9679091914 38.0575422546 0 1.909859 275 0 0 0
276 1 61.8661450455 51.7924010732 39.2288253975 0 1.909859 276 0 0 0
277 1 61.1080405135 50.5841559159 39.2467233009 0 1.909859 277 0 0 0
278 1 60.6787404031 51.4032671547 40.3473261853 0 1.909859 278 0 0 0
279 1 60.1306802975 52.4795800713 41.0237969393 0 1.909859 279 0 0 0
280 1 61.0719241733 51.9623400004 42.0099596765 0 1.909859 280 0 0 0
281 1 60.0340292446 51.9681940636 42.9837469123 0 1.909859 281 0 0 0
282 1 60.4056234546 53.2736187328 43.3264494376 0 1.909859 282 0 0 0
283 1 61.4109110090 53.0287348215 44.4562157265 0 1.909859 283 0 0 0
284 1 60.6658679174 51.9566916247 44.8627060131 0 1.909859 284 0 0 0
285 1 59.3143186769 52.0239264456 45.2346983216 0 1.909859 285 0 0 0
286 1 58.4784388041 52.0631841699 43.9887442137 0 1.909859 286 0 0 0
287 1 57.6519404128 52.3144518938 44.9549183157 0 1.909859 287 0 0 0
288 1 56.4754025181 53.0009405036 44.4487157353 0 1.909859 288 0 0 0
289 1 56.2453005965 53.9843261895 45.4264061456 0 1.909859 289 0 0 0
290 1 55.5221870439 55.1888309363 45.3500845301 0 1.909859 290 0 0 0
291 1 56.3383541679 56.2688423322 45.5722562907 0 1.909859 291 0 0 0
292 1 55.3113860653 56.1933347730 46.5250372744 0 1.909859 292 0 0 0
293 1 54.8846467765 56.5434810886 47.8218513215 0 1.909859 293 0 0 0
294 1 54.8062970938 56.8454101708 49.1066493060 0 1.909859 294 0 0 0
295 1 54.1529833239 55.7236184219 49.2457856648 0 1.909859 295 0 0 0
296 1 53.5908047630 55.0358529635 48.2004837169 0 1.909859 296 0 0 0
297 1 52.8959317564 55.2016732898 46.8652490322 0 1.909859 297 0 0 0
298 1 52.3143880369 55.1820147919 48.1653216007 0 1.909859 298 0 0 0
299 1 51.2815307513 53.9844027148 48.0907981038 0 1.909859 299 0 0 0
300 1 50.9920813171 53.6968237921 49.4430400307 0 1.909859 300 0 0 0
301 1 50.6075865222 52.4785982466 50.1583630363 0 1.909859 301 0 0 0
302 1 50.8104982589 51.0232274114 50.1270497041 0 1.909859 302 0 0 0
303 1 51.3581910402 51.0676445280 51.4247259744 0 1.909859 303 0 0 0
304 1 52.5601611942 51.9025301967 51.1978505364 0 1.909859 304 0 0 0
305 1 53.3984420615 51.4146428817 50.0881034329 0 1.909859 305 0 0 0
306 1 53.3035365277 50.9385982131 51.3940077208 0 1.909859 306 0 0 0
307 1 54.8131997178 51.0986661519 51.1970899301 0 1.909859 307 0 0 0
308 1 54.9465502894 52.4807538414 51.6841418720 0 1.909859 308 0 0 0
309 1 56.0558457152 52.3672461040 52.6777507122 0 1.909859 309 0 0 0
310 1 56.1654494542 51.8305004380 53.8876141815 0 1.909859 310 0 0 0
311 1 56.4572628053 53.1398100764 54.4650612242 0 1.909859 311 0 0 0
312 1 57.9427492613 53.2490525123 53.8433452791 0 1.909859 312 0 0 0
313 1 58.6066001976 52.0168225938 53.6592108579 0 1.909859 313 0 0 0
314 1 58.5368224878 50.6166183558 53.5633346610 0 1.909859 314 0 0 0
315 1 59.7914764958 50.3460712635 53.0882356807 0 1.909859 315 0 0 0
316 1 59.8089206837 50.7148028087 51.7217815971 0 1.909859 316 0 0 0
317 1 60.3696028932 51.9854021609 52.3296147780 0 1.909859 317 0 0 0
318 1 60.1148016804 53.2691921109 51.8797219647 0 1.909859 318 0 0 0
319 1 60.4569426422 53.0273078820 50.5074607020 0 1.909859 319 0 0 0
320 1 61.9136111264 53.3674727031 50.4557303732 0 1.909859 320 0 0 0
321 1 62.1983267874 53.7637990659 49.2051267844 0 1.909859 321 0 0 0
322 1 62.8479119852 52.5391926063 49.9876584997 0 1.909859 322 0 0 0
323 1 63.3257366620 52.0358615964 51.2094162131 0 1.909859 323 0 0 0
324 1 62.8377586072 50.7858703586 51.7747189393 0 1.909859 324 0 0 0
325 1 63.4718164008 50.2732000314 50.5632508832 0 1.909859 325 0 0 0
326 1 62.7077022459 49.2485368976 49.7757357964 0 1.909859 326 0 0 0
327 1 62.6551111026 47.8624842589 50.1332035504 0 1.909859 327 0 0 0
328 1 63.5198037777 47.2057659514 49.1630919341 0 1.909859 328 0 0 0
329 1 64.0697775226 47.8735748747 48.0484898877 0 1.909859 329 0 0 0
330 1 65.0694763060 47.5117546546 47.2511075619 0 1.909859 330 0 0 0
331 1 64.4135382795 46.6417261685 46.6101299405 0 1.909859 331 0 0 0
332 1 64.1099526463 45.3459970545 46.3839274183 0 1.909859 332 0 0 0
333 1 64.8342102008 45.3919169481 47.5627512313 0 1.909859 333 0 0 0
334 1 65.3489998890 44.7861414635 48.6163116329 0 1.909859 334 0 0 0
335 1 66.5965186827 44.9767079114 49.2995512412 0 1.909859 335 0 0 0
336 1 67.8750327778 44.0459268458 48.9585062288 0 1.909859 336 0 0 0
337 1 69.2518352398 44.7633048813 49.2501592584 0 1.909859 337 0 0 0
338 1 69.7136346399 43.5306945260 49.4735817127 0 1.909859 338 0 0 0
339 1 69.7653369645 44.6753220820 50.2795278386 0 1.909859 339 0 0 0
340 1 69.6319894426 43.8739396006 51.3228131253 0 1.909859 340 0 0 0
341 1 68.8087930470 44.9288790705 51.8455714146 0 1.909859 341 0 0 0
342 1 67.6452241017 45.5770995055 51.8723008252 0 1.909859 342 0 0 0
343 1 66.6920659471 45.0680207434 51.0277264421 0 1.909859 343 0 0 0
344 1 66.8984467853 46.4272058095 50.4182129501 0 1.909859 344 0 0 0
345 1 66.8442525268 47.4397887210 49.5749974166 0 1.909859 345 0 0 0
346 1 67.3949521241 48.7093762082 49.4639010481 0 1.909859 346 0 0 0
347 1 66.4432033186 49.1698653174 50.3239481994 0 1.909859 347 0 0 0
348 1 66.5608673217 47.9172390272 50.8608085464 0 1.909859 348 0 0 0
349 1 65.9172200145 47.7153669129 52.1379141412 0 1.909859 349 0 0 0
350 1 64.8899790560 47.8082064628 50.9624737848 0 1.909859 350 0 0 0
351 1 63.5940882012 48.1597910322 51.4066899733 0 1.909859 351 0 0 0
352 1 62.4473589257 48.8242840613 51.6066319723 0 1.909859 352 0 0 0
353 1 61.1026615507 48.5419891696 51.7534497392 0 1.909859 353 0 0 0
354 1 60.4857922271 48.3206288279 53.0703052830 0 1.909859 354 0 0 0
355 1 60.4438261313 47.8796840049 54.4864389151 0 1.909859 355 0 0 0
356 1 59.2160168655 47.1282910230 54.3194910463 0 1.909859 356 0 0 0
357 1 58.4420903128 47.9322396035 55.1932691494 0 1.909859 357 0 0 0
358 1 57.3110804149 48.3504484270 55.9715886695 0 1.909859 358 0 0 0
359 1 56.1941898472 47.4578467540 56.0409648932 0 1.909859 359 0 0 0
360 1 55.9893081300 46.3868325443 55.2914266415 0 1.909859 360 0 0 0
361 1 55.7423633196 45.0260690058 55.4765199682 0 1.909859 361 0 0 0
362 1 54.6968911851 44.9194769093 54.6451142308 0 1.909859 362 0 0 0
363 1 54.8822994771 45.5218221141 53.5017755339 0 1.909859 363 0 0 0
364 1 55.1962369942 44.6159907383 52.3327036773 0 1.909859 364 0 0 0
365 1 54.8213541790 45.6094748403 51.2815246787 0 1.909859 365 0 0 0
366 1 54.8155234552 46.9890263143 51.2545443642 0 1.909859 366 0 0 0
367 1 55.4387855240 48.0536857053 50.4152155924 0 1.909859 367 0 0 0
368 1 54.8070287824 49.3051681941 50.5322698704 0 1.909859 368 0 0 0
369 1 54.7149976630 49.1239118133 51.9542749306 0 1.909859 369 0 0 0
370 1 55.0280643327 49.3996010270 53.2536397712 0 1.909859 370 0 0 0
371 1 54.1805991222 49.9813378102 53.9980894891 0 1.909859 371 0 0 0
372 1 54.2026607105 50.9760148726 55.1012268354 0 1.909859 372 0 0 0
373 1 54.5544592963 50.3602265329 56.2167955122 0 1.909859 373 0 0 0
374 1 55.7795852669 50.8126871089 56.3315014514 0 1.909859 374 0 0 0
375 1 56.7421997041 51.2201451926 57.1813631232 0 1.909859 375 0 0 0
376 1 57.9190368369 51.2687924235 56.3930453423 0 1.909859 376 0 0 0
377 1 58.8930385352 50.4087533512 57.0796937946 0 1.909859 377 0 0 0
378 1 59.3587852253 49.1229981514 57.5624598710 0 1.909859 378 0 0 0
379 1 58.8997721511 47.7861654435 57.6598561708 0 1.909859 379 0 0 0
380 1 58.0069364293 47.1999682647 56.7650204720 0 1.909859 380 0 0 0
381 1 58.1208620300 45.8345486628 57.1123898003 0 1.909859 381 0 0 0
382 1 57.1157925772 44.8487854811 56.5107623208 0 1.909859 382 0 0 0
383 1 56.2179900017 45.3529724879 57.3896634409 0 1.909859 383 0 0 0
384 1 55.8842006552 45.6925699239 58.7934355859 0 1.909859 384 0 0 0
385 1 54.6528748358 45.9542224511 57.9283159351 0 1.909859 385 0 0 0
386 1 53.3077078701 45.4774526768 58.0616997357 0 1.909859 386 0 0 0
387 1 52.5117694427 45.7038729578 56.9044595539 0 1.909859 387 0 0 0
388 1 51.9159577984 44.5765938966 56.5241404326 0 1.909859 388 0 0 0
389 1 51.3671900563 44.4713713198 55.1571288636 0 1.909859 389 0 0 0
390 1 51.6381389530 43.0792659442 55.3610803376 0 1.909859 390 0 0 0
391 1 52.9712544284 42.7893206893 55.2391660924 0 1.909859 391 0 0 0
392 1 53.6902465548 41.5539131681 55.0271730200 0 1.909859 392 0 0 0
393 1 53.2802897965 41.2748797995 53.6311941892 0 1.909859 393 0 0 0
394 1 52.3336933344 40.4597335323 53.0344360008 0 1.909859 394 0 0 0
395 1 51.1455336944 40.5105410129 53.8249629788 0 1.909859 395 0 0 0
396 1 51.2136025317 41.3458645316 52.6942389830 0 1.909859 396 0 0 0
397 1 52.2149174628 42.2121167612 51.9243914429 0 1.909859 397 0 0 0
398 1 53.0837361916 41.4425271090 50.9968437329 0 1.909859 398 0 0 0
399 1 54.2508882935 41.3568132586 50.5024335649 0 1.909859 399 0 0 0
400 1 54.2861688447 42.8130783452 50.7774684532 0 1.909859 400 0 0 0
401 1 53.5610098934 43.0825833722 49.5037844251 0 1.909859 401 0 0 0
402 1 54.2125295634 44.3123836267 49.2216513052 0 1.909859 402 0 0 0
403 1 54.7944041397 45.6744488185 49.2188997197 0 1.909859 403 0 0 0
404 1 55.5604787177 46.4444269144 48.2607867698 0 1.909859 404 0 0 0
405 1 56.0741811339 46.6798257953 47.0523935104 0 1.909859 405 0 0 0
406 1 56.9035903583 45.6017108177 47.5032775269 0 1.909859 406 0 0 0
407 1 57.8955032948 46.4607988266 46.8435569702 0 1.909859 407 0 0 0
408 1 59.1136531161 46.0202258804 47.6279098170 0 1.909859 408 0 0 0
409 1 58.3951221875 44.7281950397 48.0015450243 0 1.909859 409 0 0 0
410 1 59.0384601051 43.5561453198 47.9046090045 0 1.909859 410 0 0 0
411 1 57.9434768666 43.3365243905 47.0495056078 0 1.909859 411 0 0 0
412 1 56.5665202481 43.4083039527 47.2126903335 0 1.909859 412 0 0 0
413 1 55.4664418203 44.3150429539 47.2318162017 0 1.909859 413 0 0 0
414 1 54.0404851913 44.4414117986 47.4695340744 0 1.909859 414 0 0 0
415 1 53.2871622327 45.2902373925 46.5240794769 0 1.909859 415 0 0 0
416 1 52.6447843623 46.2184924488 47.3738582631 0 1.909859 416 0 0 0
417 1 53.7832470510 47.0653662501 47.4184734378 0 1.909859 417 0 0 0
418 1 53.7329121392 48.5374216681 47.4952176125 0 1.909859 418 0 0 0
419 1 53.6567266122 49.8921203515 47.1297332623 0 1.909859 419 0 0 0
420 1 52.2982036471 50.3603465010 46.7550684669 0 1.909859 420 0 0 0
421 1 51.9965842252 51.8411680866 46.7901485400 0 1.909859 421 0 0 0
422 1 52.1620903489 52.4918864099 45.3754628541 0 1.909859 422 0 0 0
423 1 51.9209548905 53.2205013823 44.3359617192 0 1.909859 423 0 0 0
424 1 50.6290362100 52.5103305376 44.3183322027 0 1.909859 424 0 0 0
425 1 50.2523200737 53.7150503007 45.0891073010 0 1.909859 425 0 0 0
426 1 50.5063159060 54.8964711613 44.4323370371 0 1.909859 426 0 0 0
427 1 49.4579142801 54.7522368122 43.7038880228 0 1.909859 427 0 0 0
428 1 49.6540217636 55.4268445417 42.3516334253 0 1.909859 428 0 0 0
429 1 50.7409343003 54.9766699846 42.0571384788 0 1.909859 429 0 0 0
430 1 49.5531820355 54.8994646295 41.2718366513 0 1.909859 430 0 0 0
431 1 48.5015413583 55.3467694282 40.4258376430 0 1.909859 431 0 0 0
432 1 48.9645136922 56.5299343262 39.6834640198 0 1.909859 432 0 0 0
433 1 48.9924676125 56.1867195262 38.2911152032 0 1.909859 433 0 0 0
434 1 49.9186041954 54.9517591999 38.2978613688 0 1.909859 434 0 0 0
435 1 49.4240783312 54.8955362934 37.0034498103 0 1.909859 435 0 0 0