LAMMPS data file via write_data, version 2 Aug 2023, timestep = 30000000, units = lj

8750 atoms
3 atom types
1000 bonds
1 bond types
6750 ellipsoids

0 123.237575 xlo xhi
0 82.158384 ylo yhi
0 82.158384 zlo zhi

Masses

1 1
2 1
3 0.1

Bond Coeffs # harmonic

1 100 1.4

Atoms # hybrid

8207 2 59.808761398810745 40.402283095323654 19.476644570273407 1 1.909859 2001 0 0 0
6423 2 59.48026616297537 39.476823608208335 19.573793139339845 1 1.909859 2001 0 0 0
2814 2 61.08756210211591 40.200675011514164 19.59290910483584 1 1.909859 2001 0 0 0
2436 2 60.313554935660015 39.73887789746608 19.541670014995734 1 1.909859 2001 0 0 0
2373 2 57.46545829098217 35.34210177401919 21.347957567088105 1 1.909859 2001 0 0 0
7113 2 58.038198832883495 34.57580319303864 21.35613113326248 1 1.909859 2001 0 0 0
6065 2 58.96638612584612 34.390083946199255 21.18681426817896 1 1.909859 2001 0 0 0
6386 2 59.32916653193084 35.43436986735094 20.72667953076129 1 1.909859 2001 0 0 0
3280 2 58.375007104054156 35.38404151062642 20.917868955407123 1 1.909859 2001 0 0 0
4730 2 59.900621163817085 34.39460152867558 21.17593163061113 1 1.909859 2001 0 0 0
4123 2 60.187968835162124 35.09669770317834 20.80973421677333 1 1.909859 2001 0 0 0
2269 2 61.10116066092905 35.13280913227281 20.72229688736747 1 1.909859 2001 0 0 0
7126 2 61.36057941198012 34.12879063356581 20.952941281462603 1 1.909859 2001 0 0 0
8706 2 56.10229736463004 37.49930513564121 21.419765847828135 1 1.909859 2001 0 0 0
4443 2 57.772078639911584 36.235667466201 20.967127533027135 1 1.909859 2001 0 0 0
4079 2 56.950875518000906 36.87451755796314 21.209390747850946 1 1.909859 2001 0 0 0
2324 2 56.891684082365565 35.98560813219018 21.26546278597616 1 1.909859 2001 0 0 0
3401 2 57.45345214576575 37.48247311044161 20.756572590654038 1 1.909859 2001 0 0 0
8438 2 58.70528271755166 36.12071414288718 20.570483276556647 1 1.909859 2001 0 0 0
3554 2 59.25660947642289 37.04328045556464 20.260340446293444 1 1.909859 2001 0 0 0
7926 2 58.3448336707734 36.97345082559256 20.72074503816883 1 1.909859 2001 0 0 0
6147 2 59.80756158073046 36.212788797469685 20.371940654602806 1 1.909859 2001 0 0 0
6997 2 60.652432120879006 35.94458293768513 20.44925489331918 1 1.909859 2001 0 0 0
4969 2 61.47416907962392 36.030321154253684 20.468727160410864 1 1.909859 2001 0 0 0
3442 2 60.64947071356465 36.7529548727404 20.248301891318242 1 1.909859 2001 0 0 0
6976 2 59.948757137944966 37.4533619549092 20.285889914753238 1 1.909859 2001 0 0 0
5693 2 54.97793317391306 38.73693892992756 21.2058802690925 1 1.909859 2001 0 0 0
6433 2 55.83423450638983 38.35424424346043 21.175954205703782 1 1.909859 2001 0 0 0
4404 2 55.596133516912985 39.290897388322385 20.971623506131728 1 1.909859 2001 0 0 0
6247 2 56.73708542756702 38.22162632960917 21.059778866610102 1 1.909859 2001 0 0 0
3495 2 56.52136502765903 39.15393570190284 20.73706147319146 1 1.909859 2001 0 0 0
7027 2 57.52240139231399 38.30929365444536 20.313463174775098 1 1.909859 2001 0 0 0
2485 2 59.34029348778602 38.06766267768747 20.004319403700137 1 1.909859 2001 0 0 0
6816 2 58.703761703005966 38.76940380973335 19.6563013624574 1 1.909859 2001 0 0 0
3721 2 58.1120298657791 39.29283073560015 19.81904388656403 1 1.909859 2001 0 0 0
5580 2 58.35286295327767 37.85959966788378 20.295743327633545 1 1.909859 2001 0 0 0
7014 2 61.142441412626894 37.675901066497765 20.138304165685117 1 1.909859 2001 0 0 0
6834 2 59.90200135770071 38.67999476593438 19.85367046061997 1 1.909859 2001 0 0 0
3397 2 60.45148932614001 38.0522498270111 20.090188933342098 1 1.909859 2001 0 0 0
3557 2 60.93319774057968 39.08753061052176 19.732751493076584 1 1.909859 2001 0 0 0
8533 2 53.88257577328562 39.64236261416455 21.397254019243352 1 1.909859 2001 0 0 0
4420 2 54.09724353166896 40.55515291976623 21.017662437283317 1 1.909859 2001 0 0 0
2378 2 53.31489246247971 40.82699116515065 21.415672228578995 1 1.909859 2001 0 0 0
4933 2 55.97679696911177 40.013623239425826 20.550129108880206 1 1.909859 2001 0 0 0
7532 2 55.16965138863347 40.36793004454282 20.788769661878394 1 1.909859 2001 0 0 0
5798 2 54.789730127243246 39.59625222896496 21.026441429064025 1 1.909859 2001 0 0 0
7011 2 57.118433106696585 40.994153085071844 20.243627281926898 1 1.909859 2001 0 0 0
7958 2 57.25927297334552 39.35641101850678 20.29250163521954 1 1.909859 2001 0 0 0
5434 2 57.63378914859341 40.17182771095418 19.948336412621998 1 1.909859 2001 0 0 0
2414 2 58.02951916526107 40.90900455229241 19.917737537376123 1 1.909859 2001 0 0 0
7015 2 56.77928953569583 40.042289701771466 20.37048234791992 1 1.909859 2001 0 0 0
6284 2 58.822904341237106 40.057646087589795 19.678496324440545 1 1.909859 2001 0 0 0
5901 2 59.08894363882432 41.003403240611874 19.715853737795726 1 1.909859 2001 0 0 0
280 1 61.577942612110625 39.358080672891816 21.384931204387534 0 1.909859 280 0 0 0
1280 3 61.57794260015542 39.35808067054328 21.38493120991629 0 1.909859 280 0 0 0
3133 2 60.76849590346424 41.06316364592757 19.74137436976222 1 1.909859 2001 0 0 0
4196 2 59.33076347678777 30.139275673573824 23.194004559675523 1 1.909859 2001 0 0 0
6896 2 58.10791186909034 31.512132049172138 23.008655301972233 1 1.909859 2001 0 0 0
5363 2 58.52449808956188 30.71111188869336 23.171060660269035 1 1.909859 2001 0 0 0
4796 2 59.49118477092603 30.939221721705156 23.07663842870152 1 1.909859 2001 0 0 0
7657 2 58.828485028577134 31.779574181285557 22.723275508795087 1 1.909859 2001 0 0 0
7411 2 59.603362909348384 31.697456729529478 22.37369215544743 1 1.909859 2001 0 0 0
7683 2 60.8779442760985 31.71616136649703 22.34904865681519 1 1.909859 2001 0 0 0
5773 2 60.996994595489724 30.449687946387165 23.100167038144704 1 1.909859 2001 0 0 0
3841 2 60.295491487560675 30.816894955453463 22.664164605112443 1 1.909859 2001 0 0 0
8491 2 61.359527043842405 30.910067075273552 22.406948631199366 1 1.909859 2001 0 0 0
3023 2 56.0473622191215 32.917615324253745 22.94095402582424 1 1.909859 2001 0 0 0
3219 2 55.39308233346375 33.494914299423115 23.156022122356624 1 1.909859 2001 0 0 0
6658 2 56.99834988825654 32.86280964450257 22.692104546391768 1 1.909859 2001 0 0 0
6079 2 57.85641817524436 33.13640099965634 22.258170264619572 1 1.909859 2001 0 0 0
3464 2 56.873421889797605 33.55203136578645 22.19044646809244 1 1.909859 2001 0 0 0
2665 2 57.42259578772892 32.15925675065635 22.716607844069575 1 1.909859 2001 0 0 0
4155 2 59.34446204305971 33.761495394735405 21.55194231232177 1 1.909859 2001 0 0 0
8384 2 58.32114091220627 32.44037208964097 22.42997627971038 1 1.909859 2001 0 0 0
7773 2 58.21170464891501 33.729596649810475 21.60640473388837 1 1.909859 2001 0 0 0
7873 2 58.75279267229103 33.152637402873495 21.933328312529497 1 1.909859 2001 0 0 0
2837 2 59.28671548439408 32.597578306716635 22.21924730451375 1 1.909859 2001 0 0 0
4066 2 60.05437320358623 32.44173418199764 22.11697935517855 1 1.909859 2001 0 0 0
6659 2 60.02262034157985 33.11925745633815 21.68796043157664 1 1.909859 2001 0 0 0
2245 2 60.5403614477815 33.89417336209063 21.513417476947385 1 1.909859 2001 0 0 0
7817 2 60.95879134372342 32.443539210933025 22.097351459880773 1 1.909859 2001 0 0 0
8266 2 61.03979271912022 33.09700054669521 21.504554912022186 1 1.909859 2001 0 0 0
7621 2 54.560518555712655 34.28334059507476 23.154091369617696 1 1.909859 2001 0 0 0
3942 2 53.8118239584635 34.99752795536728 22.950872317016316 1 1.909859 2001 0 0 0
4635 2 56.118271803892924 33.94212429524864 22.378744940224482 1 1.909859 2001 0 0 0
8292 2 54.67922637049149 35.01518325726616 22.76020873642351 1 1.909859 2001 0 0 0
8741 2 55.28733847154789 34.505677594890265 22.481782053945285 1 1.909859 2001 0 0 0
6784 2 55.95794969312949 34.80697360357322 22.00868714847117 1 1.909859 2001 0 0 0
8288 2 55.13037257294159 35.57643871750844 22.311112479221883 1 1.909859 2001 0 0 0
6682 2 56.365969070854675 35.54767996971911 21.714284653560338 1 1.909859 2001 0 0 0
5300 2 56.805049834219524 34.72891625706053 21.727018920592 1 1.909859 2001 0 0 0
2952 2 57.42054054755888 34.110295551787694 21.75449383111574 1 1.909859 2001 0 0 0
276 1 59.387352007342585 35.30541318095178 22.419781127710294 0 1.909859 276 0 0 0
1276 3 59.387352006968285 35.30541317798057 22.419781136411547 0 1.909859 276 0 0 0
275 1 60.525954459760044 34.688581804447495 22.91094298993601 0 1.909859 275 0 0 0
1275 3 60.525954456676025 34.688581800876314 22.910942990739464 0 1.909859 275 0 0 0
7094 2 52.24197037825883 37.23457974416967 22.979177203796183 1 1.909859 2001 0 0 0
2744 2 52.55416340568012 36.42976216909858 23.112885550871372 1 1.909859 2001 0 0 0
5924 2 53.42813525303181 35.84161153383018 22.992323635340906 1 1.909859 2001 0 0 0
8442 2 53.49154096114114 36.75321570703397 22.77283887140611 1 1.909859 2001 0 0 0
7554 2 54.283190666235015 35.84116968570644 22.82772245268641 1 1.909859 2001 0 0 0
4491 2 54.23400153122498 36.81897700082853 22.390927062386606 1 1.909859 2001 0 0 0
6188 2 52.987416091230884 37.37422196410981 22.467368284919303 1 1.909859 2001 0 0 0
2956 2 56.26037416342458 36.559293520144585 21.67056558149616 1 1.909859 2001 0 0 0
3453 2 55.44079979547872 37.21435216076027 21.72870310198638 1 1.909859 2001 0 0 0
6461 2 55.724883575058314 36.07562421615875 22.01573702661907 1 1.909859 2001 0 0 0
2776 2 55.141341157861596 36.544310002454544 22.230357145105934 1 1.909859 2001 0 0 0
1277 3 59.74696620491741 36.62581758280042 21.902541940425685 0 1.909859 277 0 0 0
277 1 59.74696620424899 36.62581759246656 21.902541933373108 0 1.909859 277 0 0 0
1278 3 61.02095202915075 37.17531898699382 21.771741285212105 0 1.909859 278 0 0 0
278 1 61.02095203543869 37.175318989235485 21.771741276981878 0 1.909859 278 0 0 0
3174 2 50.481545995915134 38.35997241892296 23.102431376491587 1 1.909859 2001 0 0 0
3509 2 51.27037049570755 37.97432113683404 23.06017511079695 1 1.909859 2001 0 0 0
5420 2 52.05758427612299 38.07927866391947 22.771382949411038 1 1.909859 2001 0 0 0
2339 2 51.82249118422347 38.98069653047823 22.50059840599815 1 1.909859 2001 0 0 0
5301 2 54.36013908854291 38.47472871063608 21.591951078833773 1 1.909859 2001 0 0 0
8273 2 52.88100939576809 38.14707939310129 22.324357495652233 1 1.909859 2001 0 0 0
5347 2 54.296050736169036 37.67308961269361 21.99399487954921 1 1.909859 2001 0 0 0
8012 2 53.57269143423905 37.83840372835676 22.179207840123965 1 1.909859 2001 0 0 0
7335 2 53.68647993959899 38.899580330585316 21.764697597437916 1 1.909859 2001 0 0 0
2535 2 52.84036953676143 39.06299924673017 22.02064667727807 1 1.909859 2001 0 0 0
2274 2 55.12011324645079 38.0016580434043 21.67209227938191 1 1.909859 2001 0 0 0
1279 3 60.68076740628412 38.638816579002096 21.932747095108137 0 1.909859 279 0 0 0
279 1 60.68076740782874 38.638816578290395 21.932747096028802 0 1.909859 279 0 0 0
5996 2 50.84093654475588 39.29835842376389 22.930065445516473 1 1.909859 2001 0 0 0
2222 2 49.96187564567105 39.92633351983925 23.2111274563532 1 1.909859 2001 0 0 0
5324 2 50.967559924276415 40.05814087760911 22.480486336701382 1 1.909859 2001 0 0 0
2751 2 50.625858877787266 40.720674860287176 22.844811464047357 1 1.909859 2001 0 0 0
7493 2 52.65791172473186 40.17671093673254 21.635168003507424 1 1.909859 2001 0 0 0
5442 2 51.88345703821213 39.974688924508385 22.237249693916905 1 1.909859 2001 0 0 0
5022 2 52.206587040898256 40.935435181849876 22.009224306167308 1 1.909859 2001 0 0 0
284 1 60.007370718114636 41.061877347601715 22.714266055361563 0 1.909859 284 0 0 0
1284 3 60.007370711632134 41.06187735868571 22.71426606061727 0 1.909859 284 0 0 0
5211 2 59.71661788187877 28.546096302666765 24.980351047841335 1 1.909859 2001 0 0 0
3007 2 60.69667473323337 28.18964274151379 24.937652595713956 1 1.909859 2001 0 0 0
3155 2 61.524642702097246 28.410487051974304 24.700840757560787 1 1.909859 2001 0 0 0
7560 2 57.431231747572845 29.111752945877186 24.97488513239554 1 1.909859 2001 0 0 0
3125 2 56.57660268210484 29.753098415766694 24.94739128547734 1 1.909859 2001 0 0 0
4716 2 57.42998082569345 30.088467378691174 24.211342918675687 1 1.909859 2001 0 0 0
7001 2 59.256688547127624 29.138386478358996 24.57585548860686 1 1.909859 2001 0 0 0
4166 2 59.017458123217224 29.738700525089744 23.93440105283933 1 1.909859 2001 0 0 0
8079 2 58.11819546324166 29.507887777085607 24.32194432595967 1 1.909859 2001 0 0 0
8657 2 58.19777147883832 30.19412905208063 23.677999294597857 1 1.909859 2001 0 0 0
3945 2 58.47729393572106 28.831146102653175 24.91859068475531 1 1.909859 2001 0 0 0
6382 2 60.53614267420608 29.05025477096661 24.446598349434097 1 1.909859 2001 0 0 0
3058 2 59.9883287680813 29.50803035333957 24.01144750880443 1 1.909859 2001 0 0 0
7856 2 60.177537641622614 30.059895090428423 23.370363772555727 1 1.909859 2001 0 0 0
3592 2 61.57524721814063 29.075922796053817 24.246880194902033 1 1.909859 2001 0 0 0
2501 2 61.036578431540974 29.679469189838812 23.819527913719842 1 1.909859 2001 0 0 0
2039 2 54.14869550159103 31.322508002774086 24.880272735283256 1 1.909859 2001 0 0 0
5926 2 54.192357978578954 31.998522728331118 24.4174919898501 1 1.909859 2001 0 0 0
7107 2 52.880098721797715 31.89354427171577 24.679287753830252 1 1.909859 2001 0 0 0
5247 2 55.730038296406235 31.12545690788523 24.487934503523466 1 1.909859 2001 0 0 0
6622 2 56.303216492036405 31.47942509886826 23.787268522216916 1 1.909859 2001 0 0 0
6005 2 54.99401742850851 31.761294986003165 24.12877952723056 1 1.909859 2001 0 0 0
3552 2 54.91589667460869 30.925942040512375 24.742369950188515 1 1.909859 2001 0 0 0
2442 2 56.885596379947806 30.8733269964979 23.96312843539268 1 1.909859 2001 0 0 0
3575 2 57.245854107519115 31.615746181429937 23.433278230941628 1 1.909859 2001 0 0 0
2522 2 57.744930955506014 30.755240608132876 23.476120207592675 1 1.909859 2001 0 0 0
7500 2 56.369152857862105 30.40766535903535 24.4561294342173 1 1.909859 2001 0 0 0
3958 2 51.51478232033925 33.027159267226835 24.678852770265898 1 1.909859 2001 0 0 0
5796 2 52.09509472888843 33.68987072050494 24.142269718704586 1 1.909859 2001 0 0 0
6009 2 51.087239422037854 33.66798918818879 24.969457329807973 1 1.909859 2001 0 0 0
2895 2 52.096506834484536 32.272853294144014 24.985665412821234 1 1.909859 2001 0 0 0
7264 2 54.41610798560003 33.44449408321602 23.47854959492263 1 1.909859 2001 0 0 0
2102 2 52.84842196408995 32.973471930105234 24.30205767978007 1 1.909859 2001 0 0 0
7104 2 54.2873098758599 32.7976311624747 24.10629161363809 1 1.909859 2001 0 0 0
3674 2 53.604584182676675 33.45551367875706 23.885308539344543 1 1.909859 2001 0 0 0
6830 2 53.56712606374402 32.40601703104608 24.337995591977332 1 1.909859 2001 0 0 0
6467 2 55.66516799591618 32.21491459709733 23.723832036904795 1 1.909859 2001 0 0 0
2150 2 55.010836296215935 32.77474665552079 23.63158999116247 1 1.909859 2001 0 0 0
6315 2 56.46230159013576 32.23565666068608 23.25342393718867 1 1.909859 2001 0 0 0
3770 2 50.0802268072883 34.96498866056209 24.81034114210634 1 1.909859 2001 0 0 0
2634 2 50.86798126023158 34.46915318114721 24.79179663795123 1 1.909859 2001 0 0 0
4167 2 50.50297255735827 35.61568374024131 24.45995020316939 1 1.909859 2001 0 0 0
3064 2 51.53312148151861 34.43212104832199 24.328642888504532 1 1.909859 2001 0 0 0
6986 2 51.26159300841872 35.39637324632765 24.47688814533878 1 1.909859 2001 0 0 0
7779 2 52.80595036042079 34.274407774643166 23.757460854552804 1 1.909859 2001 0 0 0
6334 2 52.60426138015963 35.696692789480394 23.558461831437494 1 1.909859 2001 0 0 0
3127 2 52.276747460895145 34.92665603816114 23.984349908785315 1 1.909859 2001 0 0 0
5771 2 53.789518854020635 34.2998510761474 23.460602670411035 1 1.909859 2001 0 0 0
6736 2 53.18459582484384 35.093022863989056 23.436417604537088 1 1.909859 2001 0 0 0
3157 2 48.75954381267157 36.54662547092558 24.816851876145414 1 1.909859 2001 0 0 0
7826 2 48.940078966868924 37.49319679960389 24.80923350396266 1 1.909859 2001 0 0 0
2721 2 49.707775110813536 36.80449712283634 24.29720557191122 1 1.909859 2001 0 0 0
6751 2 50.80578950561274 36.30575656059255 24.065442232319526 1 1.909859 2001 0 0 0
6592 2 49.76624836665888 36.04053572897516 24.47943280391856 1 1.909859 2001 0 0 0
7273 2 50.43984810539389 36.957785862962716 23.84008650051591 1 1.909859 2001 0 0 0
6301 2 51.11412557113981 37.19805430573864 23.324060540921234 1 1.909859 2001 0 0 0
7983 2 51.648136452816644 36.50791899725918 23.44765171830884 1 1.909859 2001 0 0 0
5530 2 51.69662432643883 35.744255861150485 23.845881851821492 1 1.909859 2001 0 0 0
2719 2 48.78387031923175 38.21886028885798 24.403081136623406 1 1.909859 2001 0 0 0
7967 2 47.9530047380961 38.90405561300176 24.73426406231719 1 1.909859 2001 0 0 0
4331 2 48.71709531960833 39.048664948300235 24.333451932584737 1 1.909859 2001 0 0 0
8124 2 49.609703645269114 37.563242163299684 24.167371621726762 1 1.909859 2001 0 0 0
4100 2 50.120481654491535 37.9068987933049 23.74308045816325 1 1.909859 2001 0 0 0
2347 2 49.412639232345946 38.629293159991555 23.796326032847762 1 1.909859 2001 0 0 0
3501 2 49.95050657022504 39.12788237310502 23.42606233603415 1 1.909859 2001 0 0 0
367 1 52.22492457753033 38.65531827513577 24.633783215044453 0 1.909859 367 0 0 0
1367 3 52.22492457601002 38.655318265478414 24.633783218598897 0 1.909859 367 0 0 0
6326 2 48.54208773825507 40.02459923489891 24.443845276503062 1 1.909859 2001 0 0 0
5172 2 48.11252843079448 40.700088023945206 24.83456260314618 1 1.909859 2001 0 0 0
5606 2 48.952805611220576 40.925602469481404 24.183400806320652 1 1.909859 2001 0 0 0
3911 2 49.42722296716126 39.88341141026923 23.973498356704077 1 1.909859 2001 0 0 0
7187 2 49.79751569637962 40.759052205698936 23.71482516985788 1 1.909859 2001 0 0 0
1366 3 51.18132770538482 39.670996860930195 24.46865156421217 0 1.909859 366 0 0 0
366 1 51.1813277075867 39.67099687020862 24.468651564062064 0 1.909859 366 0 0 0
1368 3 53.289929064446454 39.31133875246039 24.7682765070017 0 1.909859 368 0 0 0
368 1 53.28992907098183 39.31133875394506 24.768276507419706 0 1.909859 368 0 0 0
1370 3 53.368414782292454 40.629152760082356 23.77112304501984 0 1.909859 370 0 0 0
370 1 53.368414788601235 40.629152765144 23.771123050730264 0 1.909859 370 0 0 0
369 1 54.28294204311003 40.41925426065638 24.77380066268443 0 1.909859 369 0 0 0
1369 3 54.28294204633651 40.41925425385716 24.773800666369596 0 1.909859 369 0 0 0
286 1 58.82982443763003 40.78963717158513 24.367114082459707 0 1.909859 286 0 0 0
1286 3 58.82982442898233 40.789637174975105 24.36711408653589 0 1.909859 286 0 0 0
7469 2 59.40978971301575 26.686289583217235 26.71107385963955 1 1.909859 2001 0 0 0
3072 2 60.72293313250164 26.107477770661397 26.63620493965291 1 1.909859 2001 0 0 0
7387 2 61.44362178692436 26.435911255498624 26.357982259552607 1 1.909859 2001 0 0 0
6159 2 56.23588852351777 28.17625775988964 26.329310206399835 1 1.909859 2001 0 0 0
5006 2 57.14332382033868 28.4268947202588 25.907420101145426 1 1.909859 2001 0 0 0
5682 2 57.56026053732406 27.81781315613762 26.52196145423283 1 1.909859 2001 0 0 0
2351 2 57.80931869922827 28.250045871631766 25.48653527465505 1 1.909859 2001 0 0 0
4782 2 56.73665397828288 27.724428718746232 26.733063735133957 1 1.909859 2001 0 0 0
5110 2 59.49708334802643 27.65687412796887 25.72436492489368 1 1.909859 2001 0 0 0
2555 2 58.8854946686267 27.272046586367637 26.66590986405767 1 1.909859 2001 0 0 0
3447 2 58.36835662750347 27.75233703946659 26.197087323892 1 1.909859 2001 0 0 0
2426 2 58.82662445077532 28.306914597250504 25.58763540964261 1 1.909859 2001 0 0 0
5750 2 61.140919138487455 27.057706305090004 25.74315730537277 1 1.909859 2001 0 0 0
4134 2 60.34584577461903 27.55114532153402 25.481741877342 1 1.909859 2001 0 0 0
2512 2 61.434028248973284 27.610172253820537 25.1714532842048 1 1.909859 2001 0 0 0
3055 2 60.238517189856985 26.871298322349194 26.16475759744549 1 1.909859 2001 0 0 0
2398 2 54.04960025843309 29.732223515574017 25.927642560256942 1 1.909859 2001 0 0 0
6779 2 53.05821783019096 29.898939566427824 26.275331461472575 1 1.909859 2001 0 0 0
3225 2 53.591797867923326 29.412038363142337 26.647118447930858 1 1.909859 2001 0 0 0
6230 2 54.45782918058666 29.16984243550159 26.567399231534367 1 1.909859 2001 0 0 0
4465 2 55.825195061677135 29.575477000313033 25.456565168704447 1 1.909859 2001 0 0 0
3585 2 55.745358373663926 30.344054574255416 25.009300069285388 1 1.909859 2001 0 0 0
8350 2 54.926662840257904 30.15789685954923 25.088670637909768 1 1.909859 2001 0 0 0
2889 2 55.44444609151342 29.001426539936475 26.31122371897742 1 1.909859 2001 0 0 0
6219 2 54.91484117693032 29.60350370955857 25.825458855326133 1 1.909859 2001 0 0 0
8649 2 56.35126313275901 28.925478315496406 25.661159403184076 1 1.909859 2001 0 0 0
6879 2 50.96063594197072 31.56334598247302 26.217891254102582 1 1.909859 2001 0 0 0
7651 2 51.61084351556501 31.00386128264212 26.306962063747495 1 1.909859 2001 0 0 0
3536 2 52.39278174496806 30.536454821673264 26.214836945337243 1 1.909859 2001 0 0 0
2959 2 52.00435136543499 31.619639907338488 25.643511232724997 1 1.909859 2001 0 0 0
3909 2 52.68208061179227 30.983888032872393 25.529710886103693 1 1.909859 2001 0 0 0
7260 2 53.366567411513515 30.50279630781194 25.664591997243754 1 1.909859 2001 0 0 0
3041 2 53.35225807775983 31.37537430579451 25.141720737362963 1 1.909859 2001 0 0 0
7962 2 54.16822781738942 30.572807800475683 25.32204205595229 1 1.909859 2001 0 0 0
5494 2 48.9308521448234 33.47896796771135 26.723549103032862 1 1.909859 2001 0 0 0
4819 2 49.07979265460165 33.902360886180794 25.922401323616224 1 1.909859 2001 0 0 0
7178 2 49.76007924829378 32.83970569560666 26.39253121249511 1 1.909859 2001 0 0 0
3870 2 49.92554561149735 33.31768035563337 25.774693069121625 1 1.909859 2001 0 0 0
8615 2 50.673109066163235 32.94815435154068 25.621746610354744 1 1.909859 2001 0 0 0
4318 2 50.34015864002239 32.155597662319245 26.230013943691866 1 1.909859 2001 0 0 0
6555 2 51.26337677371057 32.23022219917279 25.503992931543017 1 1.909859 2001 0 0 0
1360 3 52.208518431474594 33.45385148422657 25.930994739903593 0 1.909859 360 0 0 0
360 1 52.208518432403345 33.453851493148 25.930994734263955 0 1.909859 360 0 0 0
8646 2 47.89254876016982 34.88826917736046 26.713142107285265 1 1.909859 2001 0 0 0
8704 2 48.26532041184888 35.321226334556975 26.089844188770012 1 1.909859 2001 0 0 0
7067 2 48.67986533187215 34.69776418329334 25.81752691072487 1 1.909859 2001 0 0 0
8520 2 49.28048824615596 35.480864802155395 25.01127148989122 1 1.909859 2001 0 0 0
2167 2 48.36940618287657 34.208608738190975 26.430359073378693 1 1.909859 2001 0 0 0
3211 2 47.686034013698894 35.65874462602022 26.551542848998977 1 1.909859 2001 0 0 0
7996 2 49.54499224568827 34.68321642015949 25.477345995039574 1 1.909859 2001 0 0 0
8245 2 50.125778617134294 34.11349743411897 25.444293682595912 1 1.909859 2001 0 0 0
361 1 51.65386016511762 34.777188166629735 26.04596663435472 0 1.909859 361 0 0 0
1361 3 51.65386015803285 34.77718817294143 26.045966641005155 0 1.909859 361 0 0 0
7687 2 47.1381425895242 36.961458366615005 26.403596184895623 1 1.909859 2001 0 0 0
6415 2 48.57330262193557 35.8208565127734 25.528467303930476 1 1.909859 2001 0 0 0
3737 2 47.75429347640811 36.307170511624115 26.025600821646083 1 1.909859 2001 0 0 0
7918 2 48.163007965741215 36.8917048847279 25.420671348123978 1 1.909859 2001 0 0 0
2705 2 47.56417613268104 37.43368246544094 25.851726211758052 1 1.909859 2001 0 0 0
362 1 50.80851984505428 35.7671031121338 26.012135820111972 0 1.909859 362 0 0 0
1362 3 50.80851984445333 35.76710311006841 26.012135825288162 0 1.909859 362 0 0 0
1363 3 51.73938530063562 36.489444859898995 25.378979783970035 0 1.909859 363 0 0 0
363 1 51.73938530403625 36.489444867089055 25.378979784507393 0 1.909859 363 0 0 0
3033 2 47.40110242559965 38.36838631608642 25.60502906510402 1 1.909859 2001 0 0 0
2708 2 46.84598764834212 37.90378769727604 26.16209136153011 1 1.909859 2001 0 0 0
4783 2 47.34725327316445 39.17168704341153 25.599078643634268 1 1.909859 2001 0 0 0
3549 2 46.651373950978034 38.826412830385514 26.433916061501677 1 1.909859 2001 0 0 0
8095 2 48.057757525148055 37.91238855144103 25.14173698063117 1 1.909859 2001 0 0 0
364 1 50.899858475668026 37.564913424659515 25.21140100994192 0 1.909859 364 0 0 0
1364 3 50.89985847888453 37.5649134342277 25.211401010615585 0 1.909859 364 0 0 0
1365 3 50.19847721132699 38.990118584961174 25.20478684647524 0 1.909859 365 0 0 0
365 1 50.19847720656596 38.990118582145115 25.204786842419068 0 1.909859 365 0 0 0
1305 3 51.761266105413405 38.162349912495294 26.070233086812653 0 1.909859 305 0 0 0
305 1 51.761266111792196 38.16234991001217 26.070233089472534 0 1.909859 305 0 0 0
1309 3 53.410069025392765 37.98605588285127 26.528412289700203 0 1.909859 309 0 0 0
309 1 53.410069024835394 37.98605587763841 26.52841229289635 0 1.909859 309 0 0 0
4119 2 45.612574298646564 39.65854591485679 26.789300780983538 1 1.909859 2001 0 0 0
8617 2 46.42193286347958 39.87442660521566 26.208480999211982 1 1.909859 2001 0 0 0
7445 2 47.05209938588458 39.932812094386854 25.651295656100004 1 1.909859 2001 0 0 0
2370 2 47.26818149987356 40.815021409725645 25.420278412139535 1 1.909859 2001 0 0 0
3010 2 46.54205294499818 40.90758783333389 26.24871650603981 1 1.909859 2001 0 0 0
3600 2 47.88392513649694 39.70285271107044 25.006047457064405 1 1.909859 2001 0 0 0
306 1 51.94614018236392 39.45653651728375 26.05307617549129 0 1.909859 306 0 0 0
1306 3 51.946140177578286 39.45653651427748 26.053076172360797 0 1.909859 306 0 0 0
1307 3 53.01462292649816 39.997542883108956 26.670665938249698 0 1.909859 307 0 0 0
307 1 53.01462292348782 39.9975428892744 26.670665948068812 0 1.909859 307 0 0 0
1288 3 57.71239181902971 39.39930257338217 26.35969296355562 0 1.909859 288 0 0 0
288 1 57.71239181250413 39.39930257200013 26.359692955851287 0 1.909859 288 0 0 0
289 1 56.44862041866849 39.776964938218086 26.734454334168802 0 1.909859 289 0 0 0
1289 3 56.44862041493467 39.77696493681237 26.734454327637902 0 1.909859 289 0 0 0
287 1 58.26601046969437 40.434033836905584 25.550684584630105 0 1.909859 287 0 0 0
1287 3 58.266010465843316 40.43403382707836 25.550684579046646 0 1.909859 287 0 0 0
8701 2 59.93413752927281 24.82282229707336 28.074578651347924 1 1.909859 2001 0 0 0
6383 2 60.751204351937254 24.449776467673345 28.56503633632775 1 1.909859 2001 0 0 0
4749 2 61.09104938023355 24.901681003478757 27.867334381368373 1 1.909859 2001 0 0 0
5192 2 55.65864389552474 26.64382523175206 28.397055250023428 1 1.909859 2001 0 0 0
6387 2 57.02996026478556 26.31120610472506 27.963302172106953 1 1.909859 2001 0 0 0
4194 2 57.51282573616835 25.762569585390196 28.329154843223655 1 1.909859 2001 0 0 0
3358 2 57.80297450248036 26.65843337270603 27.699073457287813 1 1.909859 2001 0 0 0
6178 2 56.37931570947573 26.147210532906183 28.399836310363277 1 1.909859 2001 0 0 0
5532 2 58.6625827764582 26.583924938986723 27.176893588150065 1 1.909859 2001 0 0 0
8499 2 58.9785263922815 25.28556927418548 28.347743405412892 1 1.909859 2001 0 0 0
4567 2 58.3580309911585 25.799203077157323 28.14679561756088 1 1.909859 2001 0 0 0
7639 2 59.203176056687 25.88662927872701 27.57670979927332 1 1.909859 2001 0 0 0
5217 2 61.180123307316556 25.501555027765715 27.274532948512192 1 1.909859 2001 0 0 0
3777 2 60.318464473341116 25.214921550149455 27.35724384060669 1 1.909859 2001 0 0 0
3362 2 59.86393301245897 25.830991674169297 27.110439386483673 1 1.909859 2001 0 0 0
6918 2 52.814808345538694 27.997081733867088 28.391680283208302 1 1.909859 2001 0 0 0
4908 2 54.57470312775985 27.926521611529495 27.630045531833094 1 1.909859 2001 0 0 0
3949 2 53.61578442718859 28.18379619167288 28.070697128723868 1 1.909859 2001 0 0 0
8014 2 54.073288467410876 27.464313157796948 28.542300036903995 1 1.909859 2001 0 0 0
7076 2 54.36346743937849 28.468675217653885 27.036516665134382 1 1.909859 2001 0 0 0
2518 2 54.85075059708471 27.00847941967178 28.49426875611177 1 1.909859 2001 0 0 0
7157 2 55.350032790948916 28.171279058638746 27.026807239231637 1 1.909859 2001 0 0 0
7008 2 56.07932857150878 27.54354650062331 27.10131959218795 1 1.909859 2001 0 0 0
5890 2 55.49771870637772 27.399494309860444 27.688634292836234 1 1.909859 2001 0 0 0
8498 2 57.89884079726326 27.10064748355983 26.920001027003078 1 1.909859 2001 0 0 0
4186 2 56.36467778651413 26.838576881279643 27.75643744990989 1 1.909859 2001 0 0 0
2369 2 57.03671002043741 27.0558150380544 27.128593241843763 1 1.909859 2001 0 0 0
7386 2 51.02165538296998 29.907243867892817 27.29563375909817 1 1.909859 2001 0 0 0
7870 2 50.87754598561932 29.563097023503904 28.03407681539485 1 1.909859 2001 0 0 0
5349 2 50.20406684428308 29.81684557599825 28.355475497929696 1 1.909859 2001 0 0 0
8667 2 49.31158288575191 30.231670830347785 28.50566257935134 1 1.909859 2001 0 0 0
8083 2 52.43789409499934 29.656758183865918 26.99599390555629 1 1.909859 2001 0 0 0
4539 2 51.88585659411976 29.25763840770889 27.510917819504808 1 1.909859 2001 0 0 0
3763 2 52.6354949354116 28.6570017909566 27.896031394700277 1 1.909859 2001 0 0 0
5917 2 51.90548854550972 30.215118493146594 26.827653477083604 1 1.909859 2001 0 0 0
5989 2 51.656769917469575 28.97077901535655 28.23897290141704 1 1.909859 2001 0 0 0
2876 2 53.57312398616191 28.703144963027427 27.396452982283403 1 1.909859 2001 0 0 0
6017 2 53.00228799936739 29.158630138979152 27.16797458390108 1 1.909859 2001 0 0 0
6654 2 48.541905162158386 31.662243598347896 27.749375176149968 1 1.909859 2001 0 0 0
6328 2 48.71677227946338 31.0257491046475 28.416499758011522 1 1.909859 2001 0 0 0
5283 2 47.86104628598112 32.06872277903773 28.390520133927684 1 1.909859 2001 0 0 0
4614 2 49.60934710378327 31.072373678455484 27.71046718237971 1 1.909859 2001 0 0 0
7133 2 50.40797830629348 30.51813659281659 27.65204332684442 1 1.909859 2001 0 0 0
5615 2 50.44599757164111 31.270768664124315 26.888066041292827 1 1.909859 2001 0 0 0
3267 2 49.55400541714467 31.83485810433805 27.046668558629396 1 1.909859 2001 0 0 0
8158 2 51.10882699711963 30.72065543894453 27.007519794788518 1 1.909859 2001 0 0 0
1356 3 51.81188710410984 30.95303410535475 28.47901825828746 0 1.909859 356 0 0 0