LAMMPS data file via write_data, version 2 Aug 2023, timestep = 100000000, units = lj

8750 atoms
3 atom types
1000 bonds
1 bond types
6750 ellipsoids

0 123.237575 xlo xhi
0 82.158384 ylo yhi
0 82.158384 zlo zhi

Masses

1 1
2 1
3 0.1

Bond Coeffs # harmonic

1 100 1.4

Atoms # hybrid

4538 2 61.16259708610864 35.501156679132336 19.84590214400864 1 1.909859 2001 0 0 0
7676 2 59.856481234016975 35.70097167851407 19.97710203886538 1 1.909859 2001 0 0 0
3811 2 58.93534899916224 36.1545607909635 20.052113540631744 1 1.909859 2001 0 0 0
8570 2 59.675448258728196 36.64023783026257 19.898519919379403 1 1.909859 2001 0 0 0
4132 2 59.51236604182399 37.50680422606428 19.658021304396073 1 1.909859 2001 0 0 0
7475 2 58.90376971989512 36.955917857893475 19.94185702948032 1 1.909859 2001 0 0 0
7617 2 60.49728042685969 36.229950191467644 19.977549198783716 1 1.909859 2001 0 0 0
7444 2 60.33529007225898 36.824435591772094 19.474853706219843 1 1.909859 2001 0 0 0
5020 2 61.13775754036909 36.724475302074204 19.37618348362925 1 1.909859 2001 0 0 0
5660 2 57.14852918686946 38.82082990080606 19.900027854121312 1 1.909859 2001 0 0 0
7578 2 57.92968735944229 39.09268284586061 19.822433879554193 1 1.909859 2001 0 0 0
2180 2 59.67387452754566 38.61216524628244 19.604571576219545 1 1.909859 2001 0 0 0
4441 2 58.40992715319675 37.59803965966995 19.93960247913547 1 1.909859 2001 0 0 0
4060 2 58.792385928174774 38.41484113107873 19.763250447436647 1 1.909859 2001 0 0 0
4830 2 60.46923583227442 37.70105965154286 19.56253577495426 1 1.909859 2001 0 0 0
5298 2 60.770909784459626 38.59809551851515 19.411788066083876 1 1.909859 2001 0 0 0
4040 2 61.40193777920646 37.62167460871393 19.213893671776738 1 1.909859 2001 0 0 0
5368 2 55.673021884625186 40.080081134860556 19.860118816059526 1 1.909859 2001 0 0 0
4252 2 55.26396116570331 40.777565211589064 19.99225063195858 1 1.909859 2001 0 0 0
2652 2 56.788570547889556 40.35517186921972 19.77463262509268 1 1.909859 2001 0 0 0
2978 2 57.62892822564551 39.89039554724676 19.752403329488263 1 1.909859 2001 0 0 0
8081 2 57.80588797771123 40.79294838261273 19.435892558310762 1 1.909859 2001 0 0 0
7494 2 56.55184910260956 39.51780192065934 19.958041891362445 1 1.909859 2001 0 0 0
4178 2 58.73498651967946 40.82621113996114 19.546317352756024 1 1.909859 2001 0 0 0
3776 2 59.582648820799434 40.13013881149444 19.502392050452244 1 1.909859 2001 0 0 0
4719 2 58.51342926097493 40.04322283814963 19.655211784433703 1 1.909859 2001 0 0 0
4002 2 59.01494457840369 39.336942837926735 19.692055675008948 1 1.909859 2001 0 0 0
7225 2 59.87395812353288 39.35078340054899 19.70915225086434 1 1.909859 2001 0 0 0
8410 2 60.241485195067305 40.597682829591484 19.547889197143775 1 1.909859 2001 0 0 0
2689 2 60.70605956655823 39.66638984618713 19.487779945555243 1 1.909859 2001 0 0 0
4664 2 61.421367793454046 40.395642884897576 19.339190475676922 1 1.909859 2001 0 0 0
7374 2 61.5764135965806 39.48597576214387 19.32031506381307 1 1.909859 2001 0 0 0
3838 2 58.500721587168066 31.945011241457397 21.600072683044218 1 1.909859 2001 0 0 0
7193 2 59.78498390305513 31.14124185869693 21.877881168988356 1 1.909859 2001 0 0 0
7330 2 59.47152816001426 32.05713848693039 21.472265970714652 1 1.909859 2001 0 0 0
2922 2 60.37309078004415 31.82593930099184 21.443180074711993 1 1.909859 2001 0 0 0
3012 2 55.386278276989486 32.95613283588707 21.888755480963365 1 1.909859 2001 0 0 0
6986 2 54.771253483786325 33.82646341408285 21.80945718137468 1 1.909859 2001 0 0 0
6341 2 56.25730791699597 32.99741519993664 21.797068225410115 1 1.909859 2001 0 0 0
4597 2 57.0904081164259 32.61701903517957 21.793927694694553 1 1.909859 2001 0 0 0
2423 2 57.17587030557743 33.45544400471459 21.407599572188335 1 1.909859 2001 0 0 0
6562 2 57.96717286183319 32.506795061658686 21.36842857916 1 1.909859 2001 0 0 0
3080 2 58.28298133293287 33.240514142302125 21.02012809352195 1 1.909859 2001 0 0 0
4914 2 59.132872814788854 32.69143692209192 21.083507423874742 1 1.909859 2001 0 0 0
6603 2 59.414594913018135 33.71160924571714 20.770425030383958 1 1.909859 2001 0 0 0
3857 2 60.86078304455939 32.58307579130698 21.331519246859408 1 1.909859 2001 0 0 0
5453 2 61.18575044170347 33.28327870991901 20.95545249300739 1 1.909859 2001 0 0 0
4553 2 60.34834170934678 33.85646782769544 20.856399250453393 1 1.909859 2001 0 0 0
3572 2 60.15766321528862 32.86158717693555 21.070512977734843 1 1.909859 2001 0 0 0
3059 2 54.05094602913705 35.11092262298843 21.508599135255974 1 1.909859 2001 0 0 0
3542 2 55.82277737049859 34.66630549132461 21.439308873796033 1 1.909859 2001 0 0 0
4084 2 54.88377890141378 34.72089600120957 21.67951928488724 1 1.909859 2001 0 0 0
7069 2 55.43288591078474 35.687632502217106 21.128763766110936 1 1.909859 2001 0 0 0
2047 2 57.03287517123258 34.728623898208646 21.017545579343317 1 1.909859 2001 0 0 0
2312 2 57.78153393922736 33.99103995569049 20.829788375160007 1 1.909859 2001 0 0 0
2874 2 56.32605333816152 35.361198652188556 20.83328962213411 1 1.909859 2001 0 0 0
8705 2 56.55028432061151 34.00361254684584 21.42890330956746 1 1.909859 2001 0 0 0
3578 2 57.23339240034367 35.60333214155063 20.692041916410503 1 1.909859 2001 0 0 0
7033 2 58.04630264567368 35.16239675481682 20.614755593460284 1 1.909859 2001 0 0 0
3335 2 59.63810009259396 34.59877120253661 20.475413406474278 1 1.909859 2001 0 0 0
7597 2 59.166879603705844 35.41095416959124 20.21765975070779 1 1.909859 2001 0 0 0
6829 2 58.61021141441074 34.47399082550591 20.606083939868263 1 1.909859 2001 0 0 0
5119 2 60.54075761996599 35.060035300467334 20.177012157086025 1 1.909859 2001 0 0 0
8013 2 60.897783626352876 34.360291011079795 20.35097518504663 1 1.909859 2001 0 0 0
4670 2 53.851579186256664 36.2391416858619 21.513129619803074 1 1.909859 2001 0 0 0
4767 2 54.25127863748019 37.06971182711239 21.211610639484952 1 1.909859 2001 0 0 0
7872 2 53.44495672049109 36.94954380285482 21.49066033048964 1 1.909859 2001 0 0 0
7273 2 54.84430340281439 36.511532916118 21.010189036142407 1 1.909859 2001 0 0 0
8456 2 55.18782302367227 37.20039144281185 20.974294029464996 1 1.909859 2001 0 0 0
4227 2 54.48537278390178 35.82575664932844 21.310052911525375 1 1.909859 2001 0 0 0
6274 2 55.88424165291739 36.38627853535252 20.750690208523004 1 1.909859 2001 0 0 0
6438 2 56.0173000985163 37.400930170602905 20.607833953173554 1 1.909859 2001 0 0 0
5230 2 56.68904605381761 36.330904138791325 20.790930771251997 1 1.909859 2001 0 0 0
3736 2 57.537042429994784 37.2375214920444 20.26867612146683 1 1.909859 2001 0 0 0
8237 2 56.889709125033484 37.01159823525826 20.6219351182469 1 1.909859 2001 0 0 0
6199 2 57.853558973918226 36.37107319460056 20.32688350202038 1 1.909859 2001 0 0 0
7899 2 54.17133178309625 39.19802403648783 20.782701891752875 1 1.909859 2001 0 0 0
8455 2 53.89751560048005 38.43263973692346 21.078946931646726 1 1.909859 2001 0 0 0
7043 2 53.442835355457845 37.7656373405974 21.34788711649953 1 1.909859 2001 0 0 0
3486 2 53.29914431274913 39.233683285468366 21.097106055190718 1 1.909859 2001 0 0 0
6487 2 52.89413167400111 38.5277154148955 21.368729620939693 1 1.909859 2001 0 0 0
4373 2 52.762173805700385 37.69596705989464 21.85006152133291 1 1.909859 2001 0 0 0
4869 2 54.757413249073956 38.63334899300693 20.549704673151346 1 1.909859 2001 0 0 0
3164 2 55.53599372874734 39.11286904684084 20.32805460010752 1 1.909859 2001 0 0 0
3174 2 56.09669678792877 38.390857281778416 20.145731769302007 1 1.909859 2001 0 0 0
8414 2 54.52859639898944 37.81044297738649 20.90180084547386 1 1.909859 2001 0 0 0
4486 2 55.45231581301978 37.91387377656557 20.58995819190146 1 1.909859 2001 0 0 0
6261 2 56.80645454562905 37.91167407019888 20.256509312802216 1 1.909859 2001 0 0 0
6528 2 57.79047331593843 38.100301730714634 20.092264548206813 1 1.909859 2001 0 0 0
5174 2 52.29308028186996 39.454810784578946 21.77732436200734 1 1.909859 2001 0 0 0
6335 2 52.174328663001184 40.37492898849807 21.63739523535408 1 1.909859 2001 0 0 0
3996 2 54.27854900391637 40.72062935845088 20.371694357393693 1 1.909859 2001 0 0 0
5975 2 53.997156365640414 40.06126050273479 20.756154047555416 1 1.909859 2001 0 0 0
8244 2 52.89043800257087 39.88348625000082 21.192768246017256 1 1.909859 2001 0 0 0
4583 2 53.33285296011268 40.619423221095694 20.983788952573224 1 1.909859 2001 0 0 0
6590 2 54.678934292503406 39.647454479458176 20.291031902342656 1 1.909859 2001 0 0 0
7898 2 57.02720925513445 29.281011396047457 23.631747571204134 1 1.909859 2001 0 0 0
2470 2 57.68324442748062 29.55729558082276 23.320254832131166 1 1.909859 2001 0 0 0
6741 2 57.41162156177582 30.30293073339912 22.92408848162859 1 1.909859 2001 0 0 0
7017 2 56.75087936546427 30.309430657933202 23.33143846249556 1 1.909859 2001 0 0 0
8257 2 58.36170268189901 30.042212211458498 22.97645683291559 1 1.909859 2001 0 0 0
2913 2 59.12120414581961 29.671594080830207 22.962333021818015 1 1.909859 2001 0 0 0
2011 2 59.281185076400575 28.88427933908017 23.487334653599277 1 1.909859 2001 0 0 0
3348 2 58.502402665653904 29.330970676365485 23.4049219515913 1 1.909859 2001 0 0 0
3104 2 59.855174381783996 30.230969571718422 22.55590390022747 1 1.909859 2001 0 0 0
5931 2 60.99688284337974 29.227381992352953 23.23405366547165 1 1.909859 2001 0 0 0
2587 2 59.98577554479756 29.460529668298935 23.086258827664878 1 1.909859 2001 0 0 0
3153 2 60.19336863863841 28.67292917886881 23.62008962088211 1 1.909859 2001 0 0 0
7951 2 60.84473139847684 30.19512375726992 22.77682807969299 1 1.909859 2001 0 0 0
4924 2 54.130184022575236 31.977115744589945 23.285005941044385 1 1.909859 2001 0 0 0
7776 2 55.05579161121501 32.066196739834716 22.895114891638006 1 1.909859 2001 0 0 0
3883 2 55.37456926527182 31.213457308466452 23.447425957249873 1 1.909859 2001 0 0 0
3972 2 55.81341626462617 31.916791015870828 22.70684381944311 1 1.909859 2001 0 0 0
3637 2 55.87958690713793 30.588029433394507 23.49432460450815 1 1.909859 2001 0 0 0
5483 2 56.541634886189506 31.107652987646365 23.04611630930229 1 1.909859 2001 0 0 0
6751 2 56.60753240987798 32.114722361008475 22.382297711992948 1 1.909859 2001 0 0 0
8534 2 57.27523641458553 31.22788600083858 22.5169273406619 1 1.909859 2001 0 0 0
6222 2 57.66710068657178 31.760260872176985 22.001191655998987 1 1.909859 2001 0 0 0
2159 2 58.71429374618391 31.21886980431436 21.99513273262306 1 1.909859 2001 0 0 0
5523 2 58.963457416578194 30.52976111627744 22.505457078689666 1 1.909859 2001 0 0 0
2325 2 58.1070888220108 30.737696549844163 22.335966916642942 1 1.909859 2001 0 0 0
3364 2 60.61512486627627 30.833848432263533 22.124986510273224 1 1.909859 2001 0 0 0
6968 2 61.12993111368769 31.558579533066023 22.04277779325917 1 1.909859 2001 0 0 0
2626 2 61.503537186304655 30.706919915395034 22.46646570094347 1 1.909859 2001 0 0 0
7654 2 53.2338962318549 33.27523287423848 22.898298814066706 1 1.909859 2001 0 0 0
6582 2 52.76809696935629 33.9052426980395 23.220362877687734 1 1.909859 2001 0 0 0
2685 2 53.376479717786715 32.23652390657698 23.366523703124134 1 1.909859 2001 0 0 0
3193 2 53.9767599795148 32.80446121153427 23.00265347342902 1 1.909859 2001 0 0 0
8625 2 54.2279838946117 33.40363130949663 22.444249888968557 1 1.909859 2001 0 0 0
2546 2 53.494524722025155 33.913259735572844 22.510962650881435 1 1.909859 2001 0 0 0
3602 2 52.7656581243774 32.94311259566161 23.54696892184648 1 1.909859 2001 0 0 0
3590 2 55.732568408067706 33.69043386148038 21.910357901115198 1 1.909859 2001 0 0 0
4192 2 54.9424232663504 32.82904615412676 22.49961747678999 1 1.909859 2001 0 0 0
5403 2 51.705338959525484 35.196281781748056 23.613078303277955 1 1.909859 2001 0 0 0
6310 2 52.315794305674 34.860905679992094 23.143600424357082 1 1.909859 2001 0 0 0
2675 2 53.95210744077652 34.46147400528054 22.00700099384058 1 1.909859 2001 0 0 0
7622 2 52.62446041145789 35.51193290319647 22.529502852505146 1 1.909859 2001 0 0 0
7928 2 53.06248277302364 34.54552668928348 22.502125822386958 1 1.909859 2001 0 0 0
6854 2 53.419918284528634 35.196741576063864 22.163420713417597 1 1.909859 2001 0 0 0
7651 2 51.6632083271869 36.010161756066466 23.17354534925268 1 1.909859 2001 0 0 0
6130 2 50.87061195447613 36.505758303497544 23.623530853014604 1 1.909859 2001 0 0 0
8360 2 51.3704911072219 37.33060814718465 23.02568622455609 1 1.909859 2001 0 0 0
3033 2 51.91819230289154 37.395199665564355 22.448919923514694 1 1.909859 2001 0 0 0
3806 2 52.21353791834956 36.461298187062475 22.634140434959388 1 1.909859 2001 0 0 0
4383 2 53.20790542577262 35.98384482432189 21.912213071122235 1 1.909859 2001 0 0 0
6721 2 52.696200942323294 36.82771764924358 22.071488436031867 1 1.909859 2001 0 0 0
867 1 58.23384378536023 36.7480371783951 23.035755938975804 0 1.909859 867 0 0 0
1867 3 58.233843793694 36.74803717886748 23.0357559350713 0 1.909859 867 0 0 0
6378 2 52.40415497940204 38.52985979873209 22.029130286171526 1 1.909859 2001 0 0 0
5722 2 50.908817378535545 38.52367181393951 23.120793577817228 1 1.909859 2001 0 0 0
3697 2 51.64460477410853 38.233535799803114 22.629557362014424 1 1.909859 2001 0 0 0
7336 2 51.60731372842867 39.1389229196195 22.28851948277564 1 1.909859 2001 0 0 0
4554 2 50.754786391112155 37.60887870382402 23.455702787730942 1 1.909859 2001 0 0 0
869 1 58.69822497004809 38.54305472783031 23.537867750869967 0 1.909859 869 0 0 0
1869 3 58.69822497028659 38.543054722999116 23.537867758009483 0 1.909859 869 0 0 0
7235 2 50.23187666640217 39.46220150620918 23.43065539288085 1 1.909859 2001 0 0 0
7998 2 50.68349384752759 40.41502379021097 22.97431822658821 1 1.909859 2001 0 0 0
6530 2 50.024997663721955 40.94154635117631 23.63149822787804 1 1.909859 2001 0 0 0
4765 2 51.0969962423741 39.49703328493288 22.94896105633077 1 1.909859 2001 0 0 0
7592 2 51.430988115339595 40.01738078184675 22.29723140911272 1 1.909859 2001 0 0 0
5588 2 51.459127802912555 40.874158873559885 22.441871054028006 1 1.909859 2001 0 0 0
1870 3 59.71661838222895 39.489320547392865 23.70366789945247 0 1.909859 870 0 0 0
870 1 59.7166183857533 39.48932055551642 23.703667905548908 0 1.909859 870 0 0 0
7469 2 60.07943271266045 26.599550202450164 25.37583211628891 1 1.909859 2001 0 0 0
8702 2 60.98971328850748 26.704186020841256 24.967274359640047 1 1.909859 2001 0 0 0
2649 2 53.97902556893282 28.304254285167023 25.160506135221137 1 1.909859 2001 0 0 0
3330 2 55.96369484926604 28.102489085495915 24.716204512231236 1 1.909859 2001 0 0 0
5130 2 55.812795713706805 27.499968888831717 25.252033624498832 1 1.909859 2001 0 0 0
5974 2 54.89347039104159 27.858115732550274 25.047717189754174 1 1.909859 2001 0 0 0
3307 2 56.66725535118087 26.95318166341907 25.390233111578393 1 1.909859 2001 0 0 0
6786 2 57.94286572913804 27.994898854952076 24.551410108333048 1 1.909859 2001 0 0 0
2548 2 56.882771765460454 27.695675238531166 24.98128642038706 1 1.909859 2001 0 0 0
5194 2 57.85997923299889 27.393929693222645 25.11110833478939 1 1.909859 2001 0 0 0
5138 2 57.183600857637856 28.41239547286607 24.30506045104432 1 1.909859 2001 0 0 0
4905 2 58.69743195261879 28.524046133759306 24.015212709208416 1 1.909859 2001 0 0 0
7851 2 58.42394282791165 26.830837863304648 25.50456756953528 1 1.909859 2001 0 0 0
4548 2 59.58702234698397 28.008839497889223 24.207216175387323 1 1.909859 2001 0 0 0
2392 2 58.85463461495811 27.663850569599287 24.784571556600838 1 1.909859 2001 0 0 0
4322 2 59.251530650625405 27.11461383360552 25.262741028831698 1 1.909859 2001 0 0 0
4493 2 61.53145228915649 27.936134192009078 24.120176782453342 1 1.909859 2001 0 0 0
5333 2 59.915971181019614 27.309662400373956 24.74236941076875 1 1.909859 2001 0 0 0
4785 2 60.401923555232294 28.042420329998713 24.090420531490782 1 1.909859 2001 0 0 0
8619 2 60.991862718762995 27.48475172384497 24.65727566389527 1 1.909859 2001 0 0 0
7991 2 52.45708038295341 30.023261348993618 25.544260677202296 1 1.909859 2001 0 0 0
6874 2 53.231829775585204 29.103339452877155 25.300289540944842 1 1.909859 2001 0 0 0
4606 2 53.254095920862014 30.13233040953625 25.145131867229377 1 1.909859 2001 0 0 0
5934 2 53.970994161445844 29.533172580826598 24.910389467803494 1 1.909859 2001 0 0 0
6141 2 55.77389988591554 29.319965794459552 24.42087546748171 1 1.909859 2001 0 0 0
6961 2 54.782008309430694 29.33701363929458 24.639885108551155 1 1.909859 2001 0 0 0
6922 2 55.203662100467675 30.16038088999845 24.3579807230693 1 1.909859 2001 0 0 0
7465 2 55.279906579384296 28.60695747598984 24.822970534497916 1 1.909859 2001 0 0 0
7958 2 56.218082557859255 29.696963742556672 23.812060468479583 1 1.909859 2001 0 0 0
5630 2 57.96137172202509 28.770200317208776 23.844347149712178 1 1.909859 2001 0 0 0
4161 2 56.50506093672086 28.867138445525466 24.25959259525063 1 1.909859 2001 0 0 0
5561 2 61.22860883243879 28.742065253458474 23.899293780696244 1 1.909859 2001 0 0 0
4447 2 52.27435169529306 30.75441869272575 25.167891880331847 1 1.909859 2001 0 0 0
7292 2 51.737708242586706 31.951813252230156 24.91364547127826 1 1.909859 2001 0 0 0
2660 2 52.47729276959746 31.586835457662477 24.54611986115081 1 1.909859 2001 0 0 0
4851 2 51.563541708860484 31.23788936517667 25.205846690439664 1 1.909859 2001 0 0 0
2542 2 53.484406361620074 31.51284652194062 24.10698994158315 1 1.909859 2001 0 0 0
8661 2 52.8486496144287 32.138181851615414 24.06001942152849 1 1.909859 2001 0 0 0
7571 2 53.896425821863765 30.604872848570967 24.394615463380696 1 1.909859 2001 0 0 0
6804 2 52.94466754434428 30.93146792126039 24.750812431024496 1 1.909859 2001 0 0 0
3833 2 54.50077584065397 31.256441625756473 23.88104558193453 1 1.909859 2001 0 0 0
5193 2 50.672459644430475 32.64978274443923 25.54874292908443 1 1.909859 2001 0 0 0
3974 2 52.14126940844251 33.43695703587414 23.80707190067078 1 1.909859 2001 0 0 0
8541 2 52.238445240314135 32.78309240505474 24.3211712650309 1 1.909859 2001 0 0 0
2303 2 51.5342354093247 32.93194182305017 24.99209654913833 1 1.909859 2001 0 0 0
5609 2 51.48297235950581 33.58123093696718 24.452174281786263 1 1.909859 2001 0 0 0
2335 2 50.77663031400155 33.55635658926663 25.434462171855728 1 1.909859 2001 0 0 0
5807 2 50.36929242877774 34.44067025690512 25.532024820446846 1 1.909859 2001 0 0 0
7430 2 49.92499596130637 35.408062939487216 25.337151844429936 1 1.909859 2001 0 0 0
5654 2 50.48823426104183 35.07540682408118 24.895282151909285 1 1.909859 2001 0 0 0
8639 2 51.835737632493334 34.28411109308447 23.871263851977492 1 1.909859 2001 0 0 0
4394 2 50.92054224330399 34.17204161381866 24.891723073215022 1 1.909859 2001 0 0 0
8447 2 51.14818831817738 34.68000633253236 24.26853205069095 1 1.909859 2001 0 0 0
8415 2 50.93684118694683 35.542655813388144 24.027551713667513 1 1.909859 2001 0 0 0
2895 2 50.36719409988055 36.81962289523126 24.19550107248358 1 1.909859 2001 0 0 0
3851 2 50.399593426696825 35.769432982192974 24.622637154931642 1 1.909859 2001 0 0 0
3210 2 49.823105876032706 37.3155005248368 24.885118614360383 1 1.909859 2001 0 0 0
2776 2 49.92885580946023 36.42292719121626 24.735342915298066 1 1.909859 2001 0 0 0
8097 2 49.47799479662263 36.19758108976442 25.49702480135287 1 1.909859 2001 0 0 0
865 1 56.76642498579452 36.49859771128659 24.6522141940708 0 1.909859 865 0 0 0
1865 3 56.76642499477734 36.498597722315786 24.65221418884817 0 1.909859 865 0 0 0
868 1 59.02289702907923 37.32592881138284 24.122843852154677 0 1.909859 868 0 0 0
1868 3 59.02289703248998 37.32592882214827 24.122843848840738 0 1.909859 868 0 0 0
1866 3 58.00562909221549 36.05037837200017 24.35278701955723 0 1.909859 866 0 0 0
866 1 58.00562908553158 36.050378371960996 24.352787012171863 0 1.909859 866 0 0 0
3927 2 49.09719940999488 37.77070722596374 25.123492698191754 1 1.909859 2001 0 0 0
6431 2 49.70417059972346 38.236724775318926 24.776180771290885 1 1.909859 2001 0 0 0
8133 2 49.11719478177326 38.87680171945293 24.983370069055056 1 1.909859 2001 0 0 0
8098 2 50.29540250288894 37.84804071244235 24.165817879000343 1 1.909859 2001 0 0 0
8043 2 50.208617960557255 38.63358010591246 23.7676504866961 1 1.909859 2001 0 0 0
6933 2 49.82722725344529 39.16862288929511 24.199426234042637 1 1.909859 2001 0 0 0
378 1 53.45356624624833 38.65021250718877 24.764874430331155 0 1.909859 378 0 0 0
1378 3 53.45356624138656 38.650212507795466 24.76487444018078 0 1.909859 378 0 0 0
379 1 54.81529243189771 38.95997581059743 24.526018498017923 0 1.909859 379 0 0 0
1379 3 54.8152924395906 38.95997581178369 24.52601849505444 0 1.909859 379 0 0 0
871 1 60.6980852184958 38.45160968637055 24.08157737685122 0 1.909859 871 0 0 0
1871 3 60.69808522746792 38.45160968946311 24.081577373626764 0 1.909859 871 0 0 0
6182 2 48.673518881282575 40.60376089284572 24.899254532206385 1 1.909859 2001 0 0 0
6204 2 48.65104864457002 39.77446053171783 25.18889717455674 1 1.909859 2001 0 0 0
2650 2 48.05306771547343 40.68476906286516 25.51266264447219 1 1.909859 2001 0 0 0
6311 2 49.265982303580664 40.39054419511877 24.348909263306837 1 1.909859 2001 0 0 0
8331 2 49.227593860016974 39.51144335690445 24.551980698640545 1 1.909859 2001 0 0 0
3194 2 49.905810149965625 40.12084416086551 23.88214403689696 1 1.909859 2001 0 0 0
377 1 52.212428508979734 39.33385697860587 25.073663086359286 0 1.909859 377 0 0 0
1377 3 52.21242850649486 39.33385696988744 25.07366309569226 0 1.909859 377 0 0 0
376 1 51.43406794007829 40.53326470002851 25.413385270907607 0 1.909859 376 0 0 0
1376 3 51.43406794585444 40.533264701126605 25.413385264308335 0 1.909859 376 0 0 0
1380 3 55.4789242402332 40.04819331131412 25.088944459800228 0 1.909859 380 0 0 0
380 1 55.478924243424515 40.04819330577663 25.088944454900066 0 1.909859 380 0 0 0
382 1 57.888889371969114 40.807807671091176 25.04536419567696 0 1.909859 382 0 0 0
381 1 56.82577486862928 39.734719585354284 24.796133341921802 0 1.909859 381 0 0 0
1381 3 56.82577486433057 39.73471959533484 24.796133340863644 0 1.909859 381 0 0 0
1382 3 57.888889371370766 40.80780766730984 25.045364184923663 0 1.909859 382 0 0 0
8103 2 56.7570553441945 24.854820070188826 27.30912973205408 1 1.909859 2001 0 0 0
3345 2 58.00899951768511 24.888534246031988 27.1898364743476 1 1.909859 2001 0 0 0
8025 2 60.95526824398892 24.59081092443324 27.290827608089597 1 1.909859 2001 0 0 0
2825 2 60.07804380551604 24.817102373261395 27.363461886711853 1 1.909859 2001 0 0 0
5309 2 61.538305195782044 24.923703431933586 26.6768706236885 1 1.909859 2001 0 0 0
4027 2 54.32736087953387 26.01614572692761 26.62676048300342 1 1.909859 2001 0 0 0
7949 2 55.0582346469074 25.363171974860165 26.670193720366978 1 1.909859 2001 0 0 0
6213 2 54.95884246422141 26.398829601000635 26.050924046038066 1 1.909859 2001 0 0 0
5791 2 56.06354779874453 25.231380947927203 26.79283395536983 1 1.909859 2001 0 0 0
6660 2 55.745704681887375 25.850401165082687 26.09623055933878 1 1.909859 2001 0 0 0
5828 2 57.80019501891539 26.181684124075193 25.799629263910706 1 1.909859 2001 0 0 0
5638 2 56.559220841821485 26.036818530259875 25.929589730011898 1 1.909859 2001 0 0 0
8204 2 57.08813822513015 25.462811131882994 26.444530988008356 1 1.909859 2001 0 0 0
3383 2 58.31784364271579 25.701456099804535 26.48245146203323 1 1.909859 2001 0 0 0
6163 2 59.01324132929182 26.166795607690467 25.926524239601033 1 1.909859 2001 0 0 0
3243 2 59.6293481176048 25.241124930294 26.690804858434532 1 1.909859 2001 0 0 0
6392 2 58.958078444732244 25.12422253965889 26.927312222656152 1 1.909859 2001 0 0 0
2022 2 59.82917763619125 25.98587506035908 26.011108023459357 1 1.909859 2001 0 0 0
4127 2 60.77616948625941 25.981617735191513 25.734521694257747 1 1.909859 2001 0 0 0
5253 2 61.4739396065499 25.594149454351214 26.103090649309326 1 1.909859 2001 0 0 0
7693 2 60.68784968683475 25.24413042384943 26.514783151937397 1 1.909859 2001 0 0 0
6170 2 51.925090325618726 27.883408285122474 27.294126213427248 1 1.909859 2001 0 0 0
6416 2 52.136135768355146 28.525620178325518 26.65890075187037 1 1.909859 2001 0 0 0
5901 2 53.88229325629928 26.873380259036644 26.40272720528486 1 1.909859 2001 0 0 0
7215 2 52.571845283172856 27.659414663004817 26.733767414931798 1 1.909859 2001 0 0 0
2676 2 52.83778075138853 28.235461398004542 26.029795112793643 1 1.909859 2001 0 0 0
8051 2 53.675992294913975 27.572814274884365 25.8644396259459 1 1.909859 2001 0 0 0
8316 2 53.11283491093691 26.915211192515862 26.872191648923796 1 1.909859 2001 0 0 0
7299 2 55.71246735213218 26.861209656734786 25.79054220606985 1 1.909859 2001 0 0 0
6632 2 54.58242814153584 27.168591689470272 25.66935761700784 1 1.909859 2001 0 0 0
4286 2 49.68891455263752 30.23700053790358 27.204732187654717 1 1.909859 2001 0 0 0
6364 2 50.43879624902512 29.60557521968322 27.159212208318376 1 1.909859 2001 0 0 0
3050 2 51.62177534910919 30.016216052421456 25.926592384035235 1 1.909859 2001 0 0 0
4708 2 52.300475354383934 29.29738822698395 25.966219181020204 1 1.909859 2001 0 0 0
4976 2 51.41525458757413 29.399670151919942 26.608382859462797 1 1.909859 2001 0 0 0
5182 2 51.12200581973729 28.88032761070252 27.288894821052406 1 1.909859 2001 0 0 0
2088 2 50.94418458961265 30.045443834661345 26.51051819277452 1 1.909859 2001 0 0 0
3106 2 49.261166015171554 31.804119215234792 27.35736066775617 1 1.909859 2001 0 0 0
8454 2 50.238539911616044 31.637452320567732 26.37583870995298 1 1.909859 2001 0 0 0
4974 2 50.305486102111544 30.702543821668023 26.338161887620767 1 1.909859 2001 0 0 0
3950 2 49.77102674489761 31.092201503489612 26.970512620611306 1 1.909859 2001 0 0 0
3173 2 50.85351292119126 31.78470505020322 25.835382319392643 1 1.909859 2001 0 0 0
3075 2 51.204934977852346 30.749717264040424 25.901040324418947 1 1.909859 2001 0 0 0
3721 2 48.73255007283241 33.5917143499802 27.090356440054514 1 1.909859 2001 0 0 0
8416 2 48.681598984085205 32.5925565949575 27.13553731640887 1 1.909859 2001 0 0 0
6415 2 49.388135939112324 32.16091639563931 26.52821405843382 1 1.909859 2001 0 0 0
3672 2 49.998888335460606 33.71052026707141 25.8975171719306 1 1.909859 2001 0 0 0
5859 2 50.023076523287 32.66989818838711 26.062963835038293 1 1.909859 2001 0 0 0
5655 2 49.310730354087774 33.15680183238098 26.308912086588716 1 1.909859 2001 0 0 0
1880 3 61.448628054205756 32.444003772512 26.935274948310663 0 1.909859 880 0 0 0
880 1 61.44862806665471 32.444003769331296 26.935274944076696 0 1.909859 880 0 0 0
7302 2 48.22890105936126 34.51248681176487 27.127739883852513 1 1.909859 2001 0 0 0
2432 2 48.453662634485546 35.178177423859466 26.562753773985662 1 1.909859 2001 0 0 0
7820 2 47.8581016543203 35.37573903896008 27.0877794811638 1 1.909859 2001 0 0 0
3861 2 49.075247815732986 35.39557995988795 25.85179990357689 1 1.909859 2001 0 0 0
8028 2 49.02434793706917 34.11739352377637 26.414253852960666 1 1.909859 2001 0 0 0
6410 2 49.48077238093421 34.50755422518313 25.78930213158135 1 1.909859 2001 0 0 0
5059 2 46.97102619386523 36.619607467443885 27.333050806337674 1 1.909859 2001 0 0 0
8558 2 47.610111369591415 36.31240331543903 26.725261143628206 1 1.909859 2001 0 0 0
6075 2 48.47349386235286 36.054682389303025 26.301034604908644 1 1.909859 2001 0 0 0
2244 2 48.198901386464684 36.813916344560035 26.2755278802859 1 1.909859 2001 0 0 0
7637 2 47.43489361966263 37.335937185139436 26.902567161804942 1 1.909859 2001 0 0 0
2741 2 48.93265222256819 36.964562788492145 25.632181850243665 1 1.909859 2001 0 0 0
864 1 57.687595091836975 35.81813204057877 25.593393121278822 0 1.909859 864 0 0 0
1864 3 57.68759508934601 35.81813204264061 25.59339311154466 0 1.909859 864 0 0 0
1863 3 58.901073046313535 36.334330563493516 26.143077368082576 0 1.909859 863 0 0 0
863 1 58.90107304090845 36.334330570167545 26.1430773697416 0 1.909859 863 0 0 0
2910 2 46.849441441473346 39.15267370941281 27.170108079156506 1 1.909859 2001 0 0 0
2005 2 48.290260609360715 37.764692685573834 25.960691841096647 1 1.909859 2001 0 0 0
5202 2 47.58571298527552 38.20172819389004 26.25997892601348 1 1.909859 2001 0 0 0
3585 2 47.61410783519887 39.1392762274334 26.316737455505585 1 1.909859 2001 0 0 0
6371 2 48.44570853017698 38.5570781568334 25.562080353451602 1 1.909859 2001 0 0 0
7817 2 47.128007833092795 38.254087126419286 27.07126952495682 1 1.909859 2001 0 0 0
862 1 58.36391278778817 37.728182502521875 26.400456543649785 0 1.909859 862 0 0 0
1862 3 58.36391278982674 37.72818249554506 26.400456545331554 0 1.909859 862 0 0 0
7482 2 47.04125969223064 40.61115801776371 26.779695833312793 1 1.909859 2001 0 0 0
2382 2 47.68624891273597 40.87329411731477 26.201312262428935 1 1.909859 2001 0 0 0
4179 2 48.04849987930801 39.41291444479075 25.71050231569516 1 1.909859 2001 0 0 0
4896 2 47.80750327333802 40.01216884554629 26.200321823543177 1 1.909859 2001 0 0 0
2840 2 47.192177303646176 39.74254694180529 26.76817374203777 1 1.909859 2001 0 0 0
1358 3 54.394837288905826 41.038903463792856 25.618668901388556 0 1.909859 358 0 0 0
1357 3 54.754664872845865 40.18846216201295 26.717367567458044 0 1.909859 357 0 0 0
358 1 54.39483729024715 41.038903455086086 25.618668901443638 0 1.909859 358 0 0 0
357 1 54.75466486852634 40.188462159881055 26.717367557030833 0 1.909859 357 0 0 0
6589 2 53.9921243878236 24.260516004257372 28.82154996794219 1 1.909859 2001 0 0 0
4640 2 53.92405339110016 24.7993882326997 28.10893659592321 1 1.909859 2001 0 0 0
7246 2 53.27279953692629 24.942938870853162 28.737380079504184 1 1.909859 2001 0 0 0
3966 2 54.79938927077565 24.14660838324264 27.98497912175442 1 1.909859 2001 0 0 0
3395 2 55.5475579070575 23.93765949059983 28.71046258667045 1 1.909859 2001 0 0 0
5721 2 55.6668433349602 24.513700308604527 27.585061832163486 1 1.909859 2001 0 0 0
5978 2 54.567184546787395 24.882940638200214 27.401148456841504 1 1.909859 2001 0 0 0
8439 2 57.35071958116048 23.580957644886535 28.831774985152517 1 1.909859 2001 0 0 0
4054 2 56.38080061549907 23.83793822205876 28.74448210692701 1 1.909859 2001 0 0 0
8443 2 57.50241746453103 24.272433558392002 27.964459003340394 1 1.909859 2001 0 0 0
2747 2 56.4801889537154 24.244108510125514 28.008271162952624 1 1.909859 2001 0 0 0
3943 2 58.11607430991417 23.894817801453456 28.58613413942034 1 1.909859 2001 0 0 0
3692 2 59.335616269719154 24.589373568644362 27.788197327935286 1 1.909859 2001 0 0 0