LAMMPS data file via write_data, version 2 Aug 2023, timestep = 30000000, units = lj

8750 atoms
3 atom types
1000 bonds
1 bond types
6750 ellipsoids

0 123.237575 xlo xhi
0 82.158384 ylo yhi
0 82.158384 zlo zhi

Masses

1 1
2 1
3 0.1

Bond Coeffs # harmonic

1 100 1.4

Atoms # hybrid

3173 2 57.98510729590877 35.376534209104385 21.278466050887314 1 1.909859 2001 0 0 0
2323 2 58.73946553630708 35.0140700061588 21.39134203257675 1 1.909859 2001 0 0 0
3491 2 60.190800939947614 35.37792953832653 21.30262058384776 1 1.909859 2001 0 0 0
5698 2 57.98341310850065 36.29253325330496 21.241095789899664 1 1.909859 2001 0 0 0
8089 2 57.13380758713309 36.977753132152934 21.342061972025785 1 1.909859 2001 0 0 0
6923 2 59.82686931101543 37.47951092313697 20.74272006827021 1 1.909859 2001 0 0 0
4957 2 59.023166945717264 36.22359699359244 21.14659045096007 1 1.909859 2001 0 0 0
5300 2 59.25328296506405 37.00214923170284 21.14095431030832 1 1.909859 2001 0 0 0
7160 2 58.38259348666244 37.113922615793484 21.074272248735333 1 1.909859 2001 0 0 0
7400 2 60.020864625285924 36.60176422453963 20.986433045791713 1 1.909859 2001 0 0 0
5270 2 60.846133978580895 36.45500859460708 21.1800901959304 1 1.909859 2001 0 0 0
8700 2 61.49745083046198 37.439829099773355 20.989020309305644 1 1.909859 2001 0 0 0
5696 2 56.18039010859041 38.38038039042115 21.242046030181662 1 1.909859 2001 0 0 0
7757 2 56.205715572205925 39.28518855387094 21.165186434647154 1 1.909859 2001 0 0 0
4765 2 57.68899802010268 37.64449590397586 21.15846530082807 1 1.909859 2001 0 0 0
2835 2 57.551061140099186 39.025387656227956 20.95459638366883 1 1.909859 2001 0 0 0
4398 2 57.15657369935871 38.20662546277962 21.211960062200454 1 1.909859 2001 0 0 0
7104 2 58.8493423310351 37.91478528676947 20.97037983324778 1 1.909859 2001 0 0 0
3496 2 58.13573737195433 38.34010749282418 20.821179318879267 1 1.909859 2001 0 0 0
3030 2 58.76060728245709 38.97305645003632 20.79856696414243 1 1.909859 2001 0 0 0
4999 2 59.706129394270874 38.3410384196194 20.54239577861622 1 1.909859 2001 0 0 0
3428 2 60.65278431756214 37.51411044861175 20.85900213218952 1 1.909859 2001 0 0 0
2437 2 60.58265748750598 38.42337394590487 20.903545112049837 1 1.909859 2001 0 0 0
5967 2 60.20673977978116 39.27657304972396 20.74460777734607 1 1.909859 2001 0 0 0
3181 2 55.76874247661115 40.157478406167115 21.067650226175047 1 1.909859 2001 0 0 0
6401 2 55.25505981145534 40.778242759365334 21.148455816254955 1 1.909859 2001 0 0 0
7440 2 55.26845948677641 39.40095613640003 21.251041669696882 1 1.909859 2001 0 0 0
7585 2 56.94554988460511 39.65490273039173 20.85658989419364 1 1.909859 2001 0 0 0
2937 2 56.58540308675628 40.61139808276663 20.90126633776859 1 1.909859 2001 0 0 0
2619 2 57.499571840575285 40.801553462320655 20.79180142867622 1 1.909859 2001 0 0 0
6300 2 58.16989500914232 39.86462111798354 20.812131950995294 1 1.909859 2001 0 0 0
8030 2 58.76439775392495 40.48530420889756 20.762847718285265 1 1.909859 2001 0 0 0
2442 2 59.378148392772665 39.54384255912571 20.785726509384016 1 1.909859 2001 0 0 0
3499 2 59.36785158701515 41.073537952190094 20.63966315788238 1 1.909859 2001 0 0 0
3413 2 59.989176290017426 40.293046000625665 20.68113251316308 1 1.909859 2001 0 0 0
4759 2 61.083957304947795 40.374002322494334 20.686875689548078 1 1.909859 2001 0 0 0
4461 2 60.9781494451427 39.399323709714366 21.05501476472114 1 1.909859 2001 0 0 0
8047 2 60.96536924263379 31.479615713940703 23.218410273633538 1 1.909859 2001 0 0 0
2417 2 55.703142221793826 33.36570360654676 23.172394518599223 1 1.909859 2001 0 0 0
6835 2 55.11130560403334 33.877269731971055 22.902189450837238 1 1.909859 2001 0 0 0
7424 2 56.558742203829105 33.58910031750369 22.739699213394772 1 1.909859 2001 0 0 0
5469 2 56.671676819543904 32.76112932956201 23.173001461881984 1 1.909859 2001 0 0 0
4556 2 57.61476096352665 32.83677150814035 22.952759723331983 1 1.909859 2001 0 0 0
7860 2 57.70729270495165 33.73813185773848 22.224557906577218 1 1.909859 2001 0 0 0
3249 2 58.24390660491538 33.03650771051967 22.419814078703432 1 1.909859 2001 0 0 0
5592 2 58.703482917442166 32.43257930498149 22.990530002826212 1 1.909859 2001 0 0 0
6407 2 58.666823474602886 33.65281478977762 21.852661517867553 1 1.909859 2001 0 0 0
7453 2 59.816917271442684 33.63354891382999 21.859509699977075 1 1.909859 2001 0 0 0
3096 2 59.29619360065506 32.918252493722335 22.469804364451793 1 1.909859 2001 0 0 0
5662 2 60.87606383502212 33.60260075655121 22.145485508236455 1 1.909859 2001 0 0 0
7103 2 60.28103543070942 33.05070827877727 22.39857536815813 1 1.909859 2001 0 0 0
6555 2 60.12231703399434 32.24196103534377 22.773801410311716 1 1.909859 2001 0 0 0
7898 2 61.24096771088663 32.82087972261104 22.33996606489185 1 1.909859 2001 0 0 0
7224 2 61.53526364967173 32.239208956311664 22.88060078119837 1 1.909859 2001 0 0 0
5913 2 52.069291922794605 34.9668765012556 23.20670472874878 1 1.909859 2001 0 0 0
2558 2 52.83782061362165 35.70177880022357 22.821181029900526 1 1.909859 2001 0 0 0
5856 2 53.659105038258765 35.400312313503015 22.874945250423284 1 1.909859 2001 0 0 0
5961 2 54.10194837607845 34.481930783362856 22.85089095340466 1 1.909859 2001 0 0 0
2918 2 52.96762794278522 34.53311189561558 23.008699274251573 1 1.909859 2001 0 0 0
2453 2 54.78978500079161 35.38092105984885 22.488432325924215 1 1.909859 2001 0 0 0
5223 2 55.9089223963416 34.1633206269264 22.405884040899487 1 1.909859 2001 0 0 0
3094 2 55.20050390931029 34.57731837248502 22.310026254063455 1 1.909859 2001 0 0 0
4906 2 56.288084394924155 34.78989451480882 21.873346738873956 1 1.909859 2001 0 0 0
8185 2 55.60658497518208 35.48578374062785 22.11752689258395 1 1.909859 2001 0 0 0
3342 2 56.99263629390752 34.17292243452609 22.17445653431669 1 1.909859 2001 0 0 0
6640 2 57.246358151130885 34.96459738517852 21.729598721919274 1 1.909859 2001 0 0 0
3745 2 56.39570248548714 35.641083027430696 21.607841838927985 1 1.909859 2001 0 0 0
3524 2 58.20179054835673 34.431334273323415 21.745888865966293 1 1.909859 2001 0 0 0
2747 2 59.435396272490514 35.46892175741115 21.494130191921336 1 1.909859 2001 0 0 0
3388 2 59.54906378233226 34.53130235180385 21.629057060789034 1 1.909859 2001 0 0 0
3064 2 61.0692660715948 35.53190340340867 21.460513432340754 1 1.909859 2001 0 0 0
2436 2 61.3296139067346 34.758285106376576 21.777950897264425 1 1.909859 2001 0 0 0
5963 2 60.3955599728113 34.3780494137138 21.88478569561555 1 1.909859 2001 0 0 0
5546 2 51.672367689579374 36.96569611359227 23.195712991054283 1 1.909859 2001 0 0 0
5059 2 52.322491168793675 37.46464298426359 22.66152053812676 1 1.909859 2001 0 0 0
3897 2 52.07656297880993 36.19240258497933 23.05823919638449 1 1.909859 2001 0 0 0
3795 2 53.12958254501905 36.54142738357535 22.655057786242057 1 1.909859 2001 0 0 0
3693 2 53.71476334913736 37.25460899472622 22.332190697311464 1 1.909859 2001 0 0 0
3161 2 54.16675285741165 36.09036505713816 22.35331590734999 1 1.909859 2001 0 0 0
3936 2 54.598064914162165 36.73968070083841 21.964434214810527 1 1.909859 2001 0 0 0
8412 2 56.195122006449346 36.60978394785107 21.537267626124695 1 1.909859 2001 0 0 0
8062 2 55.33408659696995 36.44880043787426 21.897045031490173 1 1.909859 2001 0 0 0
4955 2 57.14272477918938 36.125505771903164 21.43669455292912 1 1.909859 2001 0 0 0
357 1 56.656391304362955 36.03909512251185 23.08755219003579 0 1.909859 357 0 0 0
1357 3 56.6563913085409 36.039095124452935 23.087552200557543 0 1.909859 357 0 0 0
8287 2 51.954190864703975 38.333286765646804 22.82382211312623 1 1.909859 2001 0 0 0
6135 2 52.611784414943884 38.85918244535585 22.55203834244288 1 1.909859 2001 0 0 0
2345 2 51.09675366705948 38.856344960519685 23.116967314457394 1 1.909859 2001 0 0 0
3275 2 53.0604274151805 37.98195387696314 22.669772540264045 1 1.909859 2001 0 0 0
6780 2 53.913261985269514 38.0737927109126 22.06114639031377 1 1.909859 2001 0 0 0
6301 2 53.44231861520661 38.76087774735846 22.13332707866436 1 1.909859 2001 0 0 0
4159 2 54.255266161421616 38.759737787059166 21.681402560526994 1 1.909859 2001 0 0 0
2429 2 54.667630028119305 37.731615007223525 21.94792081079432 1 1.909859 2001 0 0 0
3991 2 55.56202888843817 37.72518218549288 21.533979600450643 1 1.909859 2001 0 0 0
5767 2 55.14837451918579 38.54177362737763 21.509034517296772 1 1.909859 2001 0 0 0
2313 2 56.409457552043676 37.5163537561439 21.43952998990043 1 1.909859 2001 0 0 0
8565 2 50.1318643817504 39.36412789530164 23.052114468877914 1 1.909859 2001 0 0 0
8269 2 51.04966098946744 39.778524702308054 22.93549297443301 1 1.909859 2001 0 0 0
4010 2 50.600585925995965 40.440327593246884 22.91477098540761 1 1.909859 2001 0 0 0
5202 2 51.453228885336955 40.71304822036734 22.60432684886557 1 1.909859 2001 0 0 0
5001 2 51.843844637308614 39.537622339491904 22.85200122861725 1 1.909859 2001 0 0 0
5847 2 52.242535398034065 40.17627116706308 22.425067036407235 1 1.909859 2001 0 0 0
5484 2 52.0890540825225 41.047090711103685 22.226955713845673 1 1.909859 2001 0 0 0
3194 2 53.108260269183546 39.64541821071976 22.253698436556682 1 1.909859 2001 0 0 0
3247 2 52.9565575188404 40.72549359844225 22.124574296045314 1 1.909859 2001 0 0 0
3842 2 53.59858472610335 40.32618321091109 21.919135814622198 1 1.909859 2001 0 0 0
4393 2 54.44512220487752 40.60804624006339 21.49721346072458 1 1.909859 2001 0 0 0
4392 2 54.62769419623121 39.770007327935915 21.63033174801579 1 1.909859 2001 0 0 0
7372 2 55.575767467135854 30.327298908043574 24.686743208972246 1 1.909859 2001 0 0 0
8191 2 56.58029793346937 29.977277857021882 24.7340847604272 1 1.909859 2001 0 0 0
3593 2 57.39994955290325 29.729179106578474 24.779773201738717 1 1.909859 2001 0 0 0
3982 2 58.40255176134656 29.91274242557852 24.54029657551216 1 1.909859 2001 0 0 0
6961 2 59.26260231168138 29.595291625251708 24.41059280361804 1 1.909859 2001 0 0 0
5188 2 60.15785535154185 30.285695350992796 24.114706413278167 1 1.909859 2001 0 0 0
8354 2 60.3554150362425 29.58737435455858 24.554048944863247 1 1.909859 2001 0 0 0
4642 2 61.262947818875084 29.31652013106201 24.869685700476303 1 1.909859 2001 0 0 0
7978 2 60.945771006919095 30.10689872204905 24.307353321735867 1 1.909859 2001 0 0 0
5598 2 52.504907683461255 31.078447389024348 24.948901496151784 1 1.909859 2001 0 0 0
6845 2 51.867398691495424 31.99701728773823 24.70942920061409 1 1.909859 2001 0 0 0
2162 2 54.25346947829148 31.651522157798723 24.27098755213313 1 1.909859 2001 0 0 0
6992 2 53.097873777235236 31.681866332282148 24.423132764145272 1 1.909859 2001 0 0 0
3728 2 54.4870987362754 30.68854962829184 24.78638013364559 1 1.909859 2001 0 0 0
6511 2 53.42203059152182 30.857963459047003 24.959739679228548 1 1.909859 2001 0 0 0
8661 2 56.29715977844166 30.87734177360772 24.21016626683009 1 1.909859 2001 0 0 0
6612 2 55.379763167115236 31.20697976948235 24.468932595663393 1 1.909859 2001 0 0 0
3806 2 56.191532174094554 31.6587032656439 24.096412633273182 1 1.909859 2001 0 0 0
7944 2 54.99755510402741 32.00735221847333 24.098415771021788 1 1.909859 2001 0 0 0
6422 2 58.071363349300896 31.92681992396342 23.357814678634746 1 1.909859 2001 0 0 0
2886 2 57.04717010763718 30.554573526223056 24.244309629093568 1 1.909859 2001 0 0 0
6709 2 57.1167598932406 32.115115557337326 23.612838431779213 1 1.909859 2001 0 0 0
6740 2 57.281129980396635 31.363158930755656 23.953880647030854 1 1.909859 2001 0 0 0
3917 2 57.88454138244657 30.647664363479358 24.18452957036389 1 1.909859 2001 0 0 0
7076 2 58.45880645441005 31.264070059550452 23.789757548443887 1 1.909859 2001 0 0 0
6721 2 59.21320075779144 30.634021883082266 23.81841184748195 1 1.909859 2001 0 0 0
3596 2 59.3925317949525 31.64448854434817 23.248352549006352 1 1.909859 2001 0 0 0
8445 2 60.130114839326424 31.0629728997517 23.430925350530092 1 1.909859 2001 0 0 0
8017 2 61.19347558344783 30.76456892775606 23.826563271972017 1 1.909859 2001 0 0 0
7770 2 50.694975122081786 33.00780154826561 24.723216824265467 1 1.909859 2001 0 0 0
2299 2 50.57475022626271 33.79248135801974 24.295098026480805 1 1.909859 2001 0 0 0
5557 2 51.480262166706694 32.939851468056055 24.244817699659563 1 1.909859 2001 0 0 0
8357 2 52.557855145272995 32.23972164264062 24.128569505179005 1 1.909859 2001 0 0 0
3566 2 52.2779899805523 33.22611493014105 23.693153200468675 1 1.909859 2001 0 0 0
2278 2 53.26582122990772 33.75758892093589 23.282353577699897 1 1.909859 2001 0 0 0
5982 2 53.80214842176715 32.328122065093154 24.005793217519045 1 1.909859 2001 0 0 0
6102 2 53.03292273594197 32.89202295756755 23.645911832303767 1 1.909859 2001 0 0 0
4381 2 54.298876311808414 33.25835335183283 23.26088627026587 1 1.909859 2001 0 0 0
8090 2 55.88734450709747 32.460019711209085 23.749466360826784 1 1.909859 2001 0 0 0
5998 2 55.08018922368408 32.79245649297629 23.711103739411673 1 1.909859 2001 0 0 0
7707 2 49.137496766196946 35.65870717269468 24.564243869673778 1 1.909859 2001 0 0 0
2370 2 49.19464865795409 34.495513588512814 24.697851919376784 1 1.909859 2001 0 0 0
4373 2 49.73965260969469 35.54890759152477 24.115990329051378 1 1.909859 2001 0 0 0
2068 2 50.01684462906612 34.541774853211734 24.42772798264845 1 1.909859 2001 0 0 0
3005 2 50.798663895314306 34.9984831503608 23.91137132693858 1 1.909859 2001 0 0 0
2954 2 52.17996777453932 34.19579178380168 23.34350137365906 1 1.909859 2001 0 0 0
6763 2 51.39550848153111 34.10250248364646 23.862156104584994 1 1.909859 2001 0 0 0
7382 2 51.481613685508236 35.55804418497856 23.461020703133958 1 1.909859 2001 0 0 0
329 1 53.273748202994106 34.575727395781186 24.499223663354286 0 1.909859 329 0 0 0
1329 3 53.273748203928285 34.57572739471728 24.49922366796899 0 1.909859 329 0 0 0
1358 3 57.005831238972256 34.88511641962195 23.441947264249954 0 1.909859 358 0 0 0
358 1 57.00583124075555 34.885116423162394 23.441947272117304 0 1.909859 358 0 0 0
359 1 57.44237659731101 35.56846420265258 24.53853955002482 0 1.909859 359 0 0 0
1359 3 57.44237660341257 35.56846419675573 24.538539555658488 0 1.909859 359 0 0 0
7004 2 48.52967236211671 36.48797755528947 24.66183001367872 1 1.909859 2001 0 0 0
4790 2 48.741662562721515 37.21509864394734 24.18078200389694 1 1.909859 2001 0 0 0
5151 2 50.5655537940239 35.93232899594844 23.721508295336733 1 1.909859 2001 0 0 0
3516 2 49.31721825150921 36.527200155020594 24.314542161833895 1 1.909859 2001 0 0 0
7484 2 50.05512945447817 36.63728131562482 23.890481578642977 1 1.909859 2001 0 0 0
8167 2 50.363487417847296 37.427390220321804 23.61515850159489 1 1.909859 2001 0 0 0
2579 2 49.509879494006974 37.315425451084685 23.90292753481668 1 1.909859 2001 0 0 0
3837 2 51.02709343917905 36.750922855750886 23.64116714314126 1 1.909859 2001 0 0 0
332 1 52.086917734907225 36.27879447738635 24.981330120546126 0 1.909859 332 0 0 0
1332 3 52.0869177383523 36.27879446726711 24.981330114200837 0 1.909859 332 0 0 0
356 1 56.17825850076741 36.91681094077942 24.102836626238535 0 1.909859 356 0 0 0
1356 3 56.178258511474624 36.916810936847675 24.10283662491304 0 1.909859 356 0 0 0
355 1 54.99094502076114 37.310395494190786 23.594318408576417 0 1.909859 355 0 0 0
1355 3 54.99094503031359 37.310395504106054 23.594318409698268 0 1.909859 355 0 0 0
5623 2 48.07064383357277 37.92082995542894 24.534265368804473 1 1.909859 2001 0 0 0
4629 2 48.82537240350503 38.04633496334089 24.229924409228442 1 1.909859 2001 0 0 0
8275 2 48.45353282554255 38.84552193619219 23.850274486878668 1 1.909859 2001 0 0 0
6368 2 49.227633461311505 39.27009732944718 23.596396035924155 1 1.909859 2001 0 0 0
7727 2 47.590362987626854 38.969719878120806 24.390706997046923 1 1.909859 2001 0 0 0
3004 2 50.319165263016544 38.44223890693117 23.582694639075815 1 1.909859 2001 0 0 0
3302 2 49.57632932308311 38.16666524305179 23.735254119590586 1 1.909859 2001 0 0 0
2237 2 51.121618169770656 37.92513454104908 23.30502138625364 1 1.909859 2001 0 0 0
1333 3 52.69828569065187 37.64567954132148 24.535003907807344 0 1.909859 333 0 0 0
333 1 52.69828569779261 37.645679542314724 24.535003908773458 0 1.909859 333 0 0 0
334 1 52.372522813118096 38.88886361686705 24.020595506937774 0 1.909859 334 0 0 0
1334 3 52.3725228170529 38.88886360810409 24.02059550895213 0 1.909859 334 0 0 0
354 1 54.04086959977305 38.20067601068676 24.22752279925185 0 1.909859 354 0 0 0
1354 3 54.040869604201724 38.200676013086245 24.227522803977248 0 1.909859 354 0 0 0
3403 2 47.21254931222376 40.2294857782726 24.130391839209498 1 1.909859 2001 0 0 0
2534 2 46.990771661301785 39.44775799632654 24.651139208716554 1 1.909859 2001 0 0 0
5210 2 47.15648791298 41.021242332875275 24.46537952484787 1 1.909859 2001 0 0 0
3613 2 46.57999582350057 40.388116470151424 24.89517246418398 1 1.909859 2001 0 0 0
7716 2 47.904566716113635 39.69447003608621 24.068680699552925 1 1.909859 2001 0 0 0
6050 2 48.61126428464658 40.138615853501605 23.754660169341623 1 1.909859 2001 0 0 0
8161 2 48.02962621978962 40.650209256867115 23.86002317831626 1 1.909859 2001 0 0 0
2196 2 49.65338848787034 40.34214968156832 23.273233770034746 1 1.909859 2001 0 0 0
335 1 52.39414630932623 40.22054304042435 24.114623254048325 0 1.909859 335 0 0 0
1335 3 52.39414630657584 40.2205430344335 24.114623262458746 0 1.909859 335 0 0 0
352 1 54.55872384146865 40.71291472374027 23.276538137561356 0 1.909859 352 0 0 0
1352 3 54.558723847112624 40.71291472292724 23.27653813933461 0 1.909859 352 0 0 0
1353 3 54.10321523650839 39.579551610150894 23.839146736718742 0 1.909859 353 0 0 0
353 1 54.10321523608257 39.57955160111232 23.83914674166776 0 1.909859 353 0 0 0
2427 2 53.164894393426565 28.53668622930165 26.668211618614368 1 1.909859 2001 0 0 0
2759 2 56.29055903767139 27.652396993662776 26.599659514956585 1 1.909859 2001 0 0 0
7294 2 55.82727544693991 28.237627136770215 26.148652277621903 1 1.909859 2001 0 0 0
3906 2 54.67400858059663 28.434161091795495 26.173559040873133 1 1.909859 2001 0 0 0
3702 2 55.47514291758822 27.696099420263785 26.604863529226378 1 1.909859 2001 0 0 0
2317 2 57.96969760473437 27.51447870056716 26.339238276906688 1 1.909859 2001 0 0 0
4779 2 57.11466829656837 27.572809948454097 26.19714581639067 1 1.909859 2001 0 0 0
6207 2 57.396021793880635 28.217158759217472 25.71015106572987 1 1.909859 2001 0 0 0
3553 2 56.5004324833387 28.44931927667792 25.754606729776757 1 1.909859 2001 0 0 0
3838 2 58.65145355470582 27.110593217132084 26.430805153566403 1 1.909859 2001 0 0 0
8457 2 59.213982247682885 27.64083257376595 26.18535090795583 1 1.909859 2001 0 0 0
4691 2 58.439196985023734 28.12386043427847 25.72526136006878 1 1.909859 2001 0 0 0
7081 2 59.51450651641943 28.313564590042837 25.720831978287606 1 1.909859 2001 0 0 0
4137 2 60.82399803024335 26.907371243480114 26.544066540824296 1 1.909859 2001 0 0 0
7338 2 60.31243168954414 27.956517470537147 25.807409367128226 1 1.909859 2001 0 0 0
5094 2 59.995687129284455 27.241549892576263 26.39175644277005 1 1.909859 2001 0 0 0
7872 2 61.16030451166261 27.66304483651158 26.14833346578403 1 1.909859 2001 0 0 0
8139 2 61.10014121064269 28.46614502680983 25.38214671981852 1 1.909859 2001 0 0 0
6362 2 51.87626243054054 29.63934123663373 26.2149777212434 1 1.909859 2001 0 0 0
2396 2 52.55067454058899 28.940369360142437 26.546939495541444 1 1.909859 2001 0 0 0
5144 2 51.0746554984213 30.19328520161086 26.40707673950812 1 1.909859 2001 0 0 0
5367 2 52.79628432836984 29.575612412388846 25.935589896391974 1 1.909859 2001 0 0 0
5200 2 52.63459978264307 30.272849454583962 25.509511578069592 1 1.909859 2001 0 0 0
7723 2 54.55084389227815 29.85433712874092 25.12459636898139 1 1.909859 2001 0 0 0
3856 2 53.659162012497575 30.103066232846277 25.278909302286955 1 1.909859 2001 0 0 0
3974 2 53.605038688599016 29.367929994152103 25.819757424458583 1 1.909859 2001 0 0 0
8678 2 53.87311801819262 28.66552259825986 26.310779726356543 1 1.909859 2001 0 0 0
8312 2 55.56974737103903 28.868627749375996 25.70793801478529 1 1.909859 2001 0 0 0
8712 2 55.64926278693927 29.568562332038912 25.068771963334722 1 1.909859 2001 0 0 0
7853 2 54.7288626465511 29.13780829178315 25.592644144138305 1 1.909859 2001 0 0 0
6551 2 56.62072362276937 29.16531081795909 25.199586802368792 1 1.909859 2001 0 0 0
7437 2 57.57832500039446 28.956562116118057 25.16896278080184 1 1.909859 2001 0 0 0
6638 2 59.41637037976911 28.972718468371347 25.098976249845325 1 1.909859 2001 0 0 0
5735 2 58.44675778672823 28.951957596474365 25.178461881194423 1 1.909859 2001 0 0 0
4026 2 60.38359492576978 29.08567105652284 25.297593462530664 1 1.909859 2001 0 0 0
8679 2 49.11902208297315 31.9188708308613 26.474176998723628 1 1.909859 2001 0 0 0
5641 2 50.8367983992274 31.540278047506273 25.479636564255554 1 1.909859 2001 0 0 0
7713 2 49.87721892827352 31.19497499139083 26.483378518814316 1 1.909859 2001 0 0 0
2757 2 50.66940528097711 30.939688466828397 26.097632804605368 1 1.909859 2001 0 0 0
6317 2 49.90448253442213 31.84305052593682 26.087728307929773 1 1.909859 2001 0 0 0
2799 2 51.71662695841099 31.294966673696223 25.356988859605963 1 1.909859 2001 0 0 0
3300 2 51.67988537973936 30.427771659049235 25.778277963616304 1 1.909859 2001 0 0 0
1326 3 54.474972203212914 32.081519293041715 26.700016031763713 0 1.909859 326 0 0 0
326 1 54.47497220536144 32.08151929638692 26.700016038663232 0 1.909859 326 0 0 0
1323 3 56.077642586214196 30.77620605477897 26.446450768221784 0 1.909859 323 0 0 0
323 1 56.07764258558491 30.77620604738656 26.446450777230464 0 1.909859 323 0 0 0
324 1 56.54525596823044 31.621181659760772 25.4114529919469 0 1.909859 324 0 0 0
1324 3 56.545255973590486 31.62118165001732 25.41145298773676 0 1.909859 324 0 0 0
2854 2 47.83849835258102 33.04336369283435 26.38151763162729 1 1.909859 2001 0 0 0
4820 2 49.04647692429436 33.445684165548876 26.081766221960578 1 1.909859 2001 0 0 0
5009 2 48.74408457337589 32.67894513077237 26.299326335498833 1 1.909859 2001 0 0 0
7834 2 48.02821340272633 33.907619269214884 26.07325136227776 1 1.909859 2001 0 0 0
6289 2 50.97014396105572 32.30167710092163 25.08360804569646 1 1.909859 2001 0 0 0
6272 2 50.14964356798485 32.259385769789795 25.44264818850157 1 1.909859 2001 0 0 0
4676 2 50.0682993477996 33.1302763555892 25.32227145159951 1 1.909859 2001 0 0 0
2532 2 49.47114924972011 32.67597358169776 25.85958742067638 1 1.909859 2001 0 0 0
4880 2 49.50521061510232 33.80107949377854 25.281571724405232 1 1.909859 2001 0 0 0
327 1 53.1999164766728 32.52542573958872 26.19259705399006 0 1.909859 327 0 0 0
1327 3 53.199916480897826 32.52542575081025 26.192597053292268 0 1.909859 327 0 0 0
1328 3 53.33577524735785 33.330386032739064 25.131260520993955 0 1.909859 328 0 0 0
328 1 53.335775246897285 33.33038604383138 25.131260521085174 0 1.909859 328 0 0 0
325 1 55.35397498949336 32.19946760928497 25.78821242027385 0 1.909859 325 0 0 0
1325 3 55.353974998025784 32.19946760367785 25.78821242060222 0 1.909859 325 0 0 0
7138 2 47.04831667157411 35.185713337999246 26.39384331331862 1 1.909859 2001 0 0 0
3033 2 48.676495409915994 34.25529822866987 25.456088817112054 1 1.909859 2001 0 0 0
7634 2 47.58303935394419 34.60462142837616 26.263469094984153 1 1.909859 2001 0 0 0
8621 2 47.91448947764525 35.09532417232544 25.590176312652837 1 1.909859 2001 0 0 0
3794 2 48.56236500117254 35.0928153821302 25.09024705394084 1 1.909859 2001 0 0 0
330 1 52.37809933619412 34.261946918110496 25.379198278266244 0 1.909859 330 0 0 0
1330 3 52.37809934311214 34.26194691227034 25.379198272200483 0 1.909859 330 0 0 0
331 1 52.79158373917104 35.567698522955446 26.057423867494936 0 1.909859 331 0 0 0
1331 3 52.79158374405707 35.567698527474484 26.057423859182617 0 1.909859 331 0 0 0
1361 3 56.47430102367217 35.20674351688852 26.405066330185004 0 1.909859 361 0 0 0
361 1 56.47430101353012 35.206743519948525 26.405066334879148 0 1.909859 361 0 0 0
6582 2 45.50784646454568 37.364628038771016 26.536431846932107 1 1.909859 2001 0 0 0
2506 2 46.757230892752695 37.498160045854696 25.74785990004964 1 1.909859 2001 0 0 0
2665 2 46.32117700596021 37.12219907087074 26.37694210651174 1 1.909859 2001 0 0 0
6285 2 46.31487142517228 35.79317512311459 26.711943401756905 1 1.909859 2001 0 0 0
6773 2 46.571065511234856 36.346650682137444 26.019180295253236 1 1.909859 2001 0 0 0
5047 2 47.414056910598276 35.91323288377697 25.94289018902605 1 1.909859 2001 0 0 0
2046 2 47.40076379609716 36.768763596552425 25.594445317190143 1 1.909859 2001 0 0 0
6454 2 48.15078798771672 37.02952222386209 25.136756695057493 1 1.909859 2001 0 0 0
4082 2 48.086660061193435 35.8416352529459 25.170622601268796 1 1.909859 2001 0 0 0
1360 3 56.36067353246358 36.025213907247895 25.379768356249347 0 1.909859 360 0 0 0
360 1 56.3606735309198 36.02521390578833 25.37976836662944 0 1.909859 360 0 0 0
5016 2 45.39213299183776 38.69169891796856 26.453774176894015 1 1.909859 2001 0 0 0
4512 2 47.199447224542375 38.46585168291094 25.09916875693214 1 1.909859 2001 0 0 0
3829 2 47.406657484125006 37.54724434740409 25.12946171488546 1 1.909859 2001 0 0 0
4484 2 45.91100105983591 38.023176220816694 26.09070619791131 1 1.909859 2001 0 0 0
4760 2 46.080691166352075 39.02712935224552 25.816758752386818 1 1.909859 2001 0 0 0
3073 2 46.49171573579458 38.294040023171846 25.568787361169196 1 1.909859 2001 0 0 0
3979 2 45.39942538684198 40.72253733452029 25.948023988559235 1 1.909859 2001 0 0 0
6547 2 44.7787606843276 39.58014209224563 26.691728639566335 1 1.909859 2001 0 0 0
6983 2 45.483980459523 39.72595770566403 26.180514291351113 1 1.909859 2001 0 0 0
6128 2 44.874622205241145 40.684857841708116 26.558767840737747 1 1.909859 2001 0 0 0
7073 2 46.51281815847092 39.5735804681141 25.377967288056784 1 1.909859 2001 0 0 0
3548 2 46.003844754879935 40.311133838385956 25.56419089899229 1 1.909859 2001 0 0 0
1336 3 51.75614354911895 40.785993444250366 25.19516813022747 0 1.909859 336 0 0 0
336 1 51.75614355345879 40.785993449620555 25.195168128333545 0 1.909859 336 0 0 0
6112 2 53.85240131811865 26.742666510740676 28.375669164179158 1 1.909859 2001 0 0 0
6539 2 55.41664560202496 26.48451726920752 27.843851893073 1 1.909859 2001 0 0 0
3614 2 54.708670503542976 26.661037434693693 28.153986871861775 1 1.909859 2001 0 0 0
8724 2 57.884559326959575 26.78735322799514 26.9810848757692 1 1.909859 2001 0 0 0
2639 2 56.45275057373198 25.908549635435296 28.31533081010776 1 1.909859 2001 0 0 0
2977 2 56.47078223016234 26.504075776044946 27.63125577969208 1 1.909859 2001 0 0 0
5647 2 57.34895080206999 26.257868499064575 27.623601296590994 1 1.909859 2001 0 0 0
7565 2 57.563207077318694 25.80564230007243 28.318000283836806 1 1.909859 2001 0 0 0
2289 2 59.12120550643533 26.568438840783575 27.007136085427703 1 1.909859 2001 0 0 0
7507 2 58.39943039764792 26.211514967271114 27.52069047101182 1 1.909859 2001 0 0 0
8506 2 59.4557655263475 25.297188302402944 28.327179519720328 1 1.909859 2001 0 0 0
8300 2 58.60164487132072 25.601114771067206 28.1658842029452 1 1.909859 2001 0 0 0
6908 2 59.39307195781778 25.748534662187325 27.56520590960436 1 1.909859 2001 0 0 0
2927 2 61.57393715031422 26.731733867912055 26.88037282971562 1 1.909859 2001 0 0 0
5620 2 60.068667968047635 26.444435871107554 26.926101486457657 1 1.909859 2001 0 0 0
2248 2 60.80105255678517 26.146072509026197 27.292577220320055 1 1.909859 2001 0 0 0
6711 2 60.14509784748546 25.72853933425569 27.750274490454203 1 1.909859 2001 0 0 0
4821 2 61.51551062110574 25.808410145966096 27.604526123397576 1 1.909859 2001 0 0 0
3050 2 60.84396837225408 25.53277501499472 28.33084453472261 1 1.909859 2001 0 0 0
6268 2 51.08279870028863 28.083754150386504 28.472951484466257 1 1.909859 2001 0 0 0
8348 2 52.160453494696895 27.662505425620182 27.944703992512196 1 1.909859 2001 0 0 0
7919 2 52.75573247443839 27.125644764434124 28.437045649585126 1 1.909859 2001 0 0 0
8249 2 51.75467102482336 28.476456883193958 27.899711646504368 1 1.909859 2001 0 0 0
8453 2 52.39412281020523 28.42147783480621 27.347040765502296 1 1.909859 2001 0 0 0
4485 2 53.75239292541757 27.88209670778416 27.043474797372365 1 1.909859 2001 0 0 0
2952 2 52.8368684303415 27.700050917553646 27.3112062188643 1 1.909859 2001 0 0 0
4300 2 53.438006665435196 27.206409982930047 27.740387444183366 1 1.909859 2001 0 0 0
4429 2 54.37899331799454 27.1538951701419 27.499974917651524 1 1.909859 2001 0 0 0
3761 2 54.60071479575139 27.74088972494399 26.80129518996079 1 1.909859 2001 0 0 0
4993 2 55.20333125978487 27.237231140301965 27.349199218096977 1 1.909859 2001 0 0 0
2985 2 56.1564099525289 26.96087388734062 27.130604804938418 1 1.909859 2001 0 0 0
3828 2 57.08537505754486 26.98428362155365 26.865553439444987 1 1.909859 2001 0 0 0
4253 2 48.55694513228583 29.95255852101821 28.46834280262306 1 1.909859 2001 0 0 0
3648 2 49.27858709682618 29.971690848419584 27.727662078484556 1 1.909859 2001 0 0 0
4501 2 50.63357677707749 29.72837794604982 26.996414428057232 1 1.909859 2001 0 0 0
5830 2 50.23612262295869 28.827202957730474 28.111682491474898 1 1.909859 2001 0 0 0
2288 2 49.53041549505783 29.117995730803266 28.20180424142227 1 1.909859 2001 0 0 0
4268 2 50.00325831794128 29.5199859881116 27.593360283629792 1 1.909859 2001 0 0 0
5103 2 50.00322162264664 30.362359437594908 26.970577322617203 1 1.909859 2001 0 0 0
7598 2 51.030876695450075 29.04148579528518 27.679794419033662 1 1.909859 2001 0 0 0
8609 2 51.7151197930417 29.029296284180123 27.06329489978652 1 1.909859 2001 0 0 0
1322 3 56.83574857363217 30.243693998084915 27.540395500021603 0 1.909859 322 0 0 0
322 1 56.835748587792715 30.243693994669965 27.54039549549861 0 1.909859 322 0 0 0
3796 2 47.130210759118214 31.563122496781055 28.2337664231543 1 1.909859 2001 0 0 0
5052 2 49.2147325467142 30.76749260518303 26.942906956917724 1 1.909859 2001 0 0 0
6223 2 47.92692306526717 30.56276581693667 28.31790185606237 1 1.909859 2001 0 0 0
3709 2 47.79524661847567 31.583163937187834 27.472416465837945 1 1.909859 2001 0 0 0
5250 2 48.6519886258396 30.655439663142733 27.628966874008768 1 1.909859 2001 0 0 0
6080 2 48.587622531848375 31.541903986417015 26.796886759322863 1 1.909859 2001 0 0 0
2953 2 47.8136797591006 32.109240754336724 26.84431373308503 1 1.909859 2001 0 0 0