LAMMPS data file

8750 atoms
3 atom types
6750 ellipsoids
1000 bonds
1 bond types

0.0 123.237575 xlo xhi
0.0 82.158384 ylo yhi
0.0 82.158384 zlo zhi

Atoms

856 1 58.7516899109 36.1087951660 31.0239562988 0 1.909859 856 0 0 0
1856 3 58.7516899181 36.1087951674 31.0239563030 0 1.909859 856 0 0 0
357 1 60.4879112244 36.8695678711 30.8298492432 0 1.909859 357 0 0 0
1357 3 60.4879112308 36.8695678767 30.8298492508 0 1.909859 357 0 0 0
859 1 63.7912559509 36.5413360596 30.6028442383 0 1.909859 859 0 0 0
1859 3 63.7912559531 36.5413360688 30.6028442412 0 1.909859 859 0 0 0
358 1 61.9445610046 37.1430511475 30.3461151123 0 1.909859 358 0 0 0
1358 3 61.9445610138 37.1430511545 30.3461151164 0 1.909859 358 0 0 0
359 1 63.2363090515 38.0877685547 30.2663421631 0 1.909859 359 0 0 0
1359 3 63.2363090541 38.0877685585 30.2663421634 0 1.909859 359 0 0 0
360 1 64.8478088379 38.5928802490 30.6530761719 0 1.909859 360 0 0 0
1360 3 64.8478088429 38.5928802552 30.6530761810 0 1.909859 360 0 0 0
707 1 59.1394004822 40.5686950684 30.6745910645 0 1.909859 707 0 0 0
1707 3 59.1394004907 40.5686950752 30.6745910664 0 1.909859 707 0 0 0
153 1 61.4398918152 41.0004425049 29.6743621826 0 1.909859 153 0 0 0
1153 3 61.4398918252 41.0004425144 29.6743621882 0 1.909859 153 0 0 0
154 1 61.1814384460 39.9118499756 30.6393585205 0 1.909859 154 0 0 0
1154 3 61.1814384553 39.9118499848 30.6393585248 0 1.909859 154 0 0 0
152 1 62.9853630066 40.7568817139 30.3914947510 0 1.909859 152 0 0 0
1152 3 62.9853630070 40.7568817185 30.3914947609 0 1.909859 152 0 0 0
206 1 57.0744438171 41.1149139404 30.6786956787 0 1.909859 206 0 0 0
1206 3 57.0744438254 41.1149139474 30.6786956797 0 1.909859 206 0 0 0
207 1 58.2363395691 41.6520233154 30.0791320801 0 1.909859 207 0 0 0
1207 3 58.2363395776 41.6520233186 30.0791320838 0 1.909859 207 0 0 0
208 1 59.6067008972 42.4145050049 29.8996582031 0 1.909859 208 0 0 0
1208 3 59.6067009051 42.4145050100 29.8996582081 0 1.909859 208 0 0 0
653 1 61.3607902527 41.9887084961 30.7240600586 0 1.909859 653 0 0 0
1653 3 61.3607902618 41.9887084987 30.7240600657 0 1.909859 653 0 0 0
652 1 62.8250389099 42.5027770996 30.0873107910 0 1.909859 652 0 0 0
1652 3 62.8250389198 42.5027771051 30.0873107965 0 1.909859 652 0 0 0
209 1 59.6558952332 44.0325469971 30.3068084717 0 1.909859 209 0 0 0
1209 3 59.6558952332 44.0325469995 30.3068084786 0 1.909859 209 0 0 0
211 1 61.3490715027 45.4900360107 30.4593658447 0 1.909859 211 0 0 0
1211 3 61.3490715050 45.4900360166 30.4593658495 0 1.909859 211 0 0 0
339 1 60.0911979675 34.1263275146 32.9624481201 0 1.909859 339 0 0 0
1339 3 60.0911979749 34.1263275195 32.9624481278 0 1.909859 339 0 0 0
338 1 61.8089408875 34.2108001709 32.3604278564 0 1.909859 338 0 0 0
1338 3 61.8089408878 34.2108001758 32.3604278603 0 1.909859 338 0 0 0
854 1 56.8736686707 35.2617034912 32.6227264404 0 1.909859 854 0 0 0
1854 3 56.8736686715 35.2617034994 32.6227264409 0 1.909859 854 0 0 0
855 1 57.4888267517 36.2542724609 32.1562652588 0 1.909859 855 0 0 0
1855 3 57.4888267615 36.2542724707 32.1562652658 0 1.909859 855 0 0 0
355 1 58.4649314880 36.5703582764 32.9079742432 0 1.909859 355 0 0 0
1355 3 58.4649314899 36.5703582809 32.9079742445 0 1.909859 355 0 0 0
857 1 60.3730125427 35.4150085449 31.2920379639 0 1.909859 857 0 0 0
1857 3 60.3730125448 35.4150085457 31.2920379666 0 1.909859 857 0 0 0
858 1 62.0984916687 36.1217498779 31.2467498779 0 1.909859 858 0 0 0
1858 3 62.0984916749 36.1217498802 31.2467498824 0 1.909859 858 0 0 0
337 1 63.4242820740 35.1274414062 32.4138641357 0 1.909859 337 0 0 0
1337 3 63.4242820835 35.1274414112 32.4138641415 0 1.909859 337 0 0 0
835 1 66.1798706055 36.5892791748 32.7805023193 0 1.909859 835 0 0 0
1835 3 66.1798706140 36.5892791802 32.7805023275 0 1.909859 835 0 0 0
334 1 67.7097167969 36.2637786865 33.0680236816 0 1.909859 334 0 0 0
1334 3 67.7097168023 36.2637786869 33.0680236875 0 1.909859 334 0 0 0
877 1 56.0491142273 38.8320007324 33.0003204346 0 1.909859 877 0 0 0
1877 3 56.0491142371 38.8320007410 33.0003204373 0 1.909859 877 0 0 0
356 1 59.0517845154 37.3247070312 31.7758941650 0 1.909859 356 0 0 0
1356 3 59.0517845235 37.3247070398 31.7758941661 0 1.909859 356 0 0 0
156 1 61.1760826111 37.7905120850 32.2960052490 0 1.909859 156 0 0 0
1156 3 61.1760826209 37.7905120942 32.2960052537 0 1.909859 156 0 0 0
155 1 61.6590538025 38.9251556396 31.7175903320 0 1.909859 155 0 0 0
1155 3 61.6590538042 38.9251556408 31.7175903406 0 1.909859 155 0 0 0
157 1 62.6788749695 37.6193847656 32.4097137451 0 1.909859 157 0 0 0
1157 3 62.6788749699 37.6193847711 32.4097137474 0 1.909859 157 0 0 0
860 1 65.3623657227 37.1666564941 31.0836486816 0 1.909859 860 0 0 0
1860 3 65.3623657232 37.1666564985 31.0836486856 0 1.909859 860 0 0 0
861 1 65.3619689941 38.3636322021 32.5751647949 0 1.909859 861 0 0 0
1861 3 65.3619689958 38.3636322044 32.5751648026 0 1.909859 861 0 0 0
878 1 54.7186698914 39.3392333984 32.3766937256 0 1.909859 878 0 0 0
1878 3 54.7186698993 39.3392333998 32.3766937286 0 1.909859 878 0 0 0
378 1 55.4806632996 40.6923370361 32.9388885498 0 1.909859 378 0 0 0
1378 3 55.4806633079 40.6923370410 32.9388885545 0 1.909859 378 0 0 0
706 1 58.0249900818 40.5622100830 31.8307647705 0 1.909859 706 0 0 0
1706 3 58.0249900908 40.5622100885 31.8307647720 0 1.909859 706 0 0 0
654 1 61.1268119812 40.7348480225 31.7349853516 0 1.909859 654 0 0 0
1654 3 61.1268119905 40.7348480248 31.7349853520 0 1.909859 654 0 0 0
655 1 60.3892478943 39.7837677002 32.6090545654 0 1.909859 655 0 0 0
1655 3 60.3892478987 39.7837677041 32.6090545708 0 1.909859 655 0 0 0
361 1 64.9671936035 39.6030731201 31.6969757080 0 1.909859 361 0 0 0
1361 3 64.9671936127 39.6030731203 31.6969757160 0 1.909859 361 0 0 0
862 1 67.0752410889 39.1238861084 32.6975250244 0 1.909859 862 0 0 0
1862 3 67.0752410941 39.1238861177 32.6975250259 0 1.909859 862 0 0 0
362 1 65.9209747314 40.3180694580 32.6996307373 0 1.909859 362 0 0 0
1362 3 65.9209747374 40.3180694615 32.6996307416 0 1.909859 362 0 0 0
316 1 69.0076446533 40.6498565674 32.7440338135 0 1.909859 316 0 0 0
1316 3 69.0076446621 40.6498565703 32.7440338162 0 1.909859 316 0 0 0
204 1 55.3102836609 42.7043609619 32.9374694824 0 1.909859 204 0 0 0
1204 3 55.3102836656 42.7043609675 32.9374694892 0 1.909859 204 0 0 0
205 1 56.5775718689 42.2093963623 31.8187713623 0 1.909859 205 0 0 0
1205 3 56.5775718737 42.2093963655 31.8187713681 0 1.909859 205 0 0 0
708 1 59.5229301453 42.2518615723 31.3445587158 0 1.909859 708 0 0 0
1708 3 59.5229301549 42.2518615815 31.3445587190 0 1.909859 708 0 0 0
705 1 57.6809806824 41.7256469727 32.7326202393 0 1.909859 705 0 0 0
1705 3 57.6809806886 41.7256469777 32.7326202454 0 1.909859 705 0 0 0
651 1 62.9735984802 42.4668731689 31.5861206055 0 1.909859 651 0 0 0
1651 3 62.9735984878 42.4668731739 31.5861206068 0 1.909859 651 0 0 0
151 1 64.0897216797 41.3339691162 31.3648986816 0 1.909859 151 0 0 0
1151 3 64.0897216859 41.3339691196 31.3648986886 0 1.909859 151 0 0 0
150 1 65.2051391602 42.3878631592 31.5125579834 0 1.909859 150 0 0 0
1150 3 65.2051391647 42.3878631677 31.5125579866 0 1.909859 150 0 0 0
202 1 55.2208061218 44.6164855957 32.4308471680 0 1.909859 202 0 0 0
1202 3 55.2208061229 44.6164856027 32.4308471762 0 1.909859 202 0 0 0
702 1 56.7205314636 44.0796356201 31.6520996094 0 1.909859 702 0 0 0
1702 3 56.7205314696 44.0796356275 31.6520996162 0 1.909859 702 0 0 0
709 1 59.0965538025 43.6600494385 31.8860778809 0 1.909859 709 0 0 0
1709 3 59.0965538055 43.6600494451 31.8860778873 0 1.909859 709 0 0 0
210 1 60.2551689148 44.9319763184 31.5930633545 0 1.909859 210 0 0 0
1210 3 60.2551689225 44.9319763262 31.5930633571 0 1.909859 210 0 0 0
710 1 60.9797630310 43.5660247803 32.3607635498 0 1.909859 710 0 0 0
1710 3 60.9797630408 43.5660247806 32.3607635500 0 1.909859 710 0 0 0
711 1 61.8937034607 44.2668762207 31.2100982666 0 1.909859 711 0 0 0
1711 3 61.8937034641 44.2668762276 31.2100982761 0 1.909859 711 0 0 0
713 1 63.1201744080 44.6427612305 32.4251708984 0 1.909859 713 0 0 0
1713 3 63.1201744156 44.6427612397 32.4251709016 0 1.909859 713 0 0 0
650 1 64.1756591797 43.5900573730 31.3147888184 0 1.909859 650 0 0 0
1650 3 64.1756591888 43.5900573784 31.3147888281 0 1.909859 650 0 0 0
649 1 65.4714355469 44.2903594971 31.1912231445 0 1.909859 649 0 0 0
1649 3 65.4714355560 44.2903595017 31.1912231448 0 1.909859 649 0 0 0
149 1 66.5678863525 43.4585571289 31.2972717285 0 1.909859 149 0 0 0
1149 3 66.5678863544 43.4585571353 31.2972717339 0 1.909859 149 0 0 0
648 1 65.8142700195 44.6685791016 32.7401275635 0 1.909859 648 0 0 0
1648 3 65.8142700205 44.6685791100 32.7401275674 0 1.909859 648 0 0 0
148 1 67.1846618652 44.6870880127 31.9594268799 0 1.909859 148 0 0 0
1148 3 67.1846618670 44.6870880212 31.9594268825 0 1.909859 148 0 0 0
147 1 68.5075988770 44.4721679688 32.8582916260 0 1.909859 147 0 0 0
1147 3 68.5075988852 44.4721679760 32.8582916297 0 1.909859 147 0 0 0
201 1 55.4027061462 46.3327484131 32.9758911133 0 1.909859 201 0 0 0
1201 3 55.4027061547 46.3327484203 32.9758911168 0 1.909859 201 0 0 0
701 1 56.7545890808 45.9134674072 31.9759521484 0 1.909859 701 0 0 0
1701 3 56.7545890887 45.9134674111 31.9759521503 0 1.909859 701 0 0 0
212 1 62.4277915955 46.4198455811 31.4868164062 0 1.909859 212 0 0 0
1212 3 62.4277916014 46.4198455899 31.4868164095 0 1.909859 212 0 0 0
712 1 63.2028617859 45.2861633301 31.1935882568 0 1.909859 712 0 0 0
1712 3 63.2028617958 45.2861633390 31.1935882622 0 1.909859 712 0 0 0
213 1 62.1330375671 45.6767578125 32.8802032471 0 1.909859 213 0 0 0
1213 3 62.1330375714 45.6767578204 32.8802032535 0 1.909859 213 0 0 0
700 1 56.9042167664 47.5198822021 32.7322998047 0 1.909859 700 0 0 0
1700 3 56.9042167723 47.5198822055 32.7322998093 0 1.909859 700 0 0 0
690 1 65.1720886230 48.3940887451 32.9996185303 0 1.909859 690 0 0 0
1690 3 65.1720886266 48.3940887548 32.9996185335 0 1.909859 690 0 0 0
340 1 59.0080986023 32.9244995117 33.5377197266 0 1.909859 340 0 0 0
1340 3 59.0080986087 32.9244995123 33.5377197342 0 1.909859 340 0 0 0
341 1 57.7607994080 33.0922088623 34.3139495850 0 1.909859 341 0 0 0
1341 3 57.7607994171 33.0922088628 34.3139495941 0 1.909859 341 0 0 0
840 1 59.6982688904 33.3572082520 34.8639221191 0 1.909859 840 0 0 0
1840 3 59.6982688979 33.3572082563 34.8639221231 0 1.909859 840 0 0 0
839 1 61.0049552917 33.8539733887 33.8870086670 0 1.909859 839 0 0 0
1839 3 61.0049552941 33.8539733939 33.8870086694 0 1.909859 839 0 0 0
838 1 62.1195182800 35.0658874512 33.7997741699 0 1.909859 838 0 0 0
1838 3 62.1195182842 35.0658874586 33.7997741736 0 1.909859 838 0 0 0
584 1 63.9364585876 33.1499786377 34.8266296387 0 1.909859 584 0 0 0
1584 3 63.9364585899 33.1499786410 34.8266296404 0 1.909859 584 0 0 0
336 1 64.7598724365 34.8388977051 33.4307098389 0 1.909859 336 0 0 0
1336 3 64.7598724444 34.8388977116 33.4307098471 0 1.909859 336 0 0 0
335 1 66.6071929932 34.9453277588 33.1651153564 0 1.909859 335 0 0 0
1335 3 66.6071929933 34.9453277631 33.1651153614 0 1.909859 335 0 0 0
332 1 67.4127502441 33.7659759521 34.6218261719 0 1.909859 332 0 0 0
1332 3 67.4127502443 33.7659759544 34.6218261746 0 1.909859 332 0 0 0
852 1 54.3979911804 36.5919799805 34.6427154541 0 1.909859 852 0 0 0
1852 3 54.3979911817 36.5919799893 34.6427154566 0 1.909859 852 0 0 0
853 1 55.6919975281 36.2250671387 33.5297851562 0 1.909859 853 0 0 0
1853 3 55.6919975310 36.2250671455 33.5297851654 0 1.909859 853 0 0 0
353 1 56.2689933777 35.4967651367 34.6317443848 0 1.909859 353 0 0 0
1353 3 56.2689933815 35.4967651376 34.6317443920 0 1.909859 353 0 0 0
354 1 57.7759056091 35.6717987061 34.1989898682 0 1.909859 354 0 0 0
1354 3 57.7759056133 35.6717987149 34.1989898704 0 1.909859 354 0 0 0
873 1 58.9298973083 36.9013061523 34.8635559082 0 1.909859 873 0 0 0
1873 3 58.9298973090 36.9013061529 34.8635559093 0 1.909859 873 0 0 0
837 1 63.4034080505 36.0239257812 33.6885223389 0 1.909859 837 0 0 0
1837 3 63.4034080581 36.0239257880 33.6885223454 0 1.909859 837 0 0 0
836 1 65.0083618164 36.0570526123 33.9478149414 0 1.909859 836 0 0 0
1836 3 65.0083618232 36.0570526168 33.9478149421 0 1.909859 836 0 0 0
834 1 66.6072387695 36.3474121094 34.3024597168 0 1.909859 834 0 0 0
1834 3 66.6072387729 36.3474121193 34.3024597240 0 1.909859 834 0 0 0
333 1 68.2170867920 35.1499023438 34.2493438721 0 1.909859 333 0 0 0
1333 3 68.2170868013 35.1499023520 34.2493438750 0 1.909859 333 0 0 0
319 1 69.5161437988 36.6552276611 34.4667510986 0 1.909859 319 0 0 0
1319 3 69.5161438049 36.6552276648 34.4667510988 0 1.909859 319 0 0 0
880 1 53.0448265076 39.0305328369 34.0749511719 0 1.909859 880 0 0 0
1880 3 53.0448265099 39.0305328404 34.0749511795 0 1.909859 880 0 0 0
879 1 54.5931510925 39.0617218018 33.9980621338 0 1.909859 879 0 0 0
1879 3 54.5931510998 39.0617218069 33.9980621422 0 1.909859 879 0 0 0
876 1 56.9769096375 37.9181671143 33.5227508545 0 1.909859 876 0 0 0
1876 3 56.9769096439 37.9181671214 33.5227508627 0 1.909859 876 0 0 0
875 1 56.3444328308 37.4639739990 35.0307312012 0 1.909859 875 0 0 0
1875 3 56.3444328383 37.4639740083 35.0307312019 0 1.909859 875 0 0 0
376 1 57.5457878113 39.0445556641 34.7519683838 0 1.909859 376 0 0 0
1376 3 57.5457878179 39.0445556664 34.7519683938 0 1.909859 376 0 0 0
656 1 60.1630210876 38.1454162598 33.3186645508 0 1.909859 656 0 0 0
1656 3 60.1630210942 38.1454162637 33.3186645577 0 1.909859 656 0 0 0
657 1 61.8885612488 38.3669891357 33.6101531982 0 1.909859 657 0 0 0
1657 3 61.8885612563 38.3669891377 33.6101532015 0 1.909859 657 0 0 0
658 1 63.0699424744 38.6476440430 34.8996887207 0 1.909859 658 0 0 0
1658 3 63.0699424840 38.6476440445 34.8996887231 0 1.909859 658 0 0 0
158 1 63.7272758484 39.0124511719 33.2037506104 0 1.909859 158 0 0 0
1158 3 63.7272758507 39.0124511763 33.2037506123 0 1.909859 158 0 0 0
318 1 68.8683166504 38.0169677734 34.2688751221 0 1.909859 318 0 0 0
1318 3 68.8683166549 38.0169677750 34.2688751251 0 1.909859 318 0 0 0
818 1 70.5456390381 38.5127868652 34.7276000977 0 1.909859 818 0 0 0
1818 3 70.5456390409 38.5127868686 34.7276001022 0 1.909859 818 0 0 0
380 1 52.8311119080 40.2987365723 34.5940704346 0 1.909859 380 0 0 0
1380 3 52.8311119148 40.2987365804 34.5940704362 0 1.909859 380 0 0 0
379 1 54.4363212585 40.6685638428 34.1599884033 0 1.909859 379 0 0 0
1379 3 54.4363212605 40.6685638443 34.1599884050 0 1.909859 379 0 0 0
377 1 56.5733909607 40.1270141602 33.9913482666 0 1.909859 377 0 0 0
1377 3 56.5733909637 40.1270141663 33.9913482681 0 1.909859 377 0 0 0
944 1 59.9675102234 40.2034149170 34.5924530029 0 1.909859 944 0 0 0
1944 3 59.9675102256 40.2034149256 34.5924530090 0 1.909859 944 0 0 0
159 1 62.7535209656 40.0784759521 33.4894866943 0 1.909859 159 0 0 0
1159 3 62.7535209704 40.0784759599 33.4894866969 0 1.909859 159 0 0 0
659 1 62.4767570496 39.9738006592 34.9440917969 0 1.909859 659 0 0 0
1659 3 62.4767570534 39.9738006654 34.9440917994 0 1.909859 659 0 0 0
660 1 63.8900413513 40.8237457275 34.8226470947 0 1.909859 660 0 0 0
1660 3 63.8900413517 40.8237457302 34.8226471030 0 1.909859 660 0 0 0
863 1 67.2838745117 39.1931457520 34.4995117188 0 1.909859 863 0 0 0
1863 3 67.2838745148 39.1931457531 34.4995117281 0 1.909859 863 0 0 0
363 1 65.7060241699 39.7323455811 34.3608856201 0 1.909859 363 0 0 0
1363 3 65.7060241747 39.7323455870 34.3608856242 0 1.909859 363 0 0 0
317 1 69.2498168945 39.2347717285 33.1543121338 0 1.909859 317 0 0 0
1317 3 69.2498168947 39.2347717355 33.1543121375 0 1.909859 317 0 0 0
817 1 69.6292724609 39.8234100342 34.8360137939 0 1.909859 817 0 0 0
1817 3 69.6292724708 39.8234100399 34.8360137940 0 1.909859 817 0 0 0
816 1 70.3709259033 40.8688964844 33.7905273438 0 1.909859 816 0 0 0
1816 3 70.3709259058 40.8688964912 33.7905273504 0 1.909859 816 0 0 0
704 1 56.8739585876 42.7363128662 33.9046478271 0 1.909859 704 0 0 0
1704 3 56.8739585972 42.7363128666 33.9046478370 0 1.909859 704 0 0 0
943 1 59.5147056580 41.3788909912 33.5400543213 0 1.909859 943 0 0 0
1943 3 59.5147056666 41.3788909918 33.5400543267 0 1.909859 943 0 0 0
942 1 59.4452171326 43.0713195801 33.9682769775 0 1.909859 942 0 0 0
1942 3 59.4452171370 43.0713195838 33.9682769874 0 1.909859 942 0 0 0
443 1 60.9604301453 41.7378387451 34.0354309082 0 1.909859 443 0 0 0
1443 3 60.9604301514 41.7378387462 34.0354309126 0 1.909859 443 0 0 0
160 1 63.6668968201 41.4839477539 33.1238098145 0 1.909859 160 0 0 0
1160 3 63.6668968229 41.4839477633 33.1238098176 0 1.909859 160 0 0 0
661 1 64.8076324463 41.8272552490 34.8352508545 0 1.909859 661 0 0 0
1661 3 64.8076324554 41.8272552501 34.8352508619 0 1.909859 661 0 0 0
161 1 65.4303436279 42.1509552002 33.3484191895 0 1.909859 161 0 0 0
1161 3 65.4303436345 42.1509552054 33.3484191982 0 1.909859 161 0 0 0
315 1 68.4732971191 42.1143188477 33.3269500732 0 1.909859 315 0 0 0
1315 3 68.4732971273 42.1143188528 33.3269500790 0 1.909859 315 0 0 0
314 1 68.1712799072 42.1558074951 35.0230560303 0 1.909859 314 0 0 0
1314 3 68.1712799094 42.1558074997 35.0230560322 0 1.909859 314 0 0 0
815 1 69.9229888916 42.3733978271 33.5394287109 0 1.909859 815 0 0 0
1815 3 69.9229888976 42.3733978294 33.5394287197 0 1.909859 815 0 0 0
203 1 55.7420158386 44.0793762207 33.6415100098 0 1.909859 203 0 0 0
1203 3 55.7420158440 44.0793762285 33.6415100102 0 1.909859 203 0 0 0
703 1 57.2483940125 44.0531768799 33.2003326416 0 1.909859 703 0 0 0
1703 3 57.2483940130 44.0531768835 33.2003326465 0 1.909859 703 0 0 0
214 1 62.0803947449 44.5289001465 33.9147644043 0 1.909859 214 0 0 0
1214 3 62.0803947511 44.5289001508 33.9147644104 0 1.909859 214 0 0 0
715 1 62.3850822449 43.2273712158 34.9625091553 0 1.909859 715 0 0 0
1715 3 62.3850822510 43.2273712236 34.9625091628 0 1.909859 715 0 0 0
714 1 63.6682701111 43.8387145996 33.7731170654 0 1.909859 714 0 0 0
1714 3 63.6682701138 43.8387146030 33.7731170727 0 1.909859 714 0 0 0
162 1 66.1295471191 43.1289062500 34.5135345459 0 1.909859 162 0 0 0
1162 3 66.1295471264 43.1289062564 34.5135345469 0 1.909859 162 0 0 0
146 1 69.1491546631 44.2582092285 34.3374633789 0 1.909859 146 0 0 0
1146 3 69.1491546675 44.2582092348 34.3374633839 0 1.909859 146 0 0 0
200 1 56.8729820251 46.3048553467 33.5971679688 0 1.909859 200 0 0 0
1200 3 56.8729820301 46.3048553552 33.5971679733 0 1.909859 200 0 0 0
199 1 58.2768821716 46.8872985840 33.8498840332 0 1.909859 199 0 0 0
1199 3 58.2768821746 46.8872985892 33.8498840419 0 1.909859 199 0 0 0
940 1 59.1231803894 45.1785736084 35.0077819824 0 1.909859 940 0 0 0
1940 3 59.1231803962 45.1785736116 35.0077819845 0 1.909859 940 0 0 0
688 1 63.6002616882 46.4813995361 34.7133178711 0 1.909859 688 0 0 0
1688 3 63.6002616894 46.4813995393 34.7133178799 0 1.909859 688 0 0 0
189 1 65.4060363770 46.3264007568 33.4069671631 0 1.909859 189 0 0 0
1189 3 65.4060363859 46.3264007571 33.4069671714 0 1.909859 189 0 0 0
188 1 64.9762268066 45.3663177490 34.5378265381 0 1.909859 188 0 0 0
1188 3 64.9762268086 45.3663177551 34.5378265451 0 1.909859 188 0 0 0
647 1 67.1244964600 45.2082061768 33.6654968262 0 1.909859 647 0 0 0
1647 3 67.1244964675 45.2082061816 33.6654968361 0 1.909859 647 0 0 0
646 1 67.9607391357 45.5307769775 34.7262725830 0 1.909859 646 0 0 0
1646 3 67.9607391372 45.5307769783 34.7262725915 0 1.909859 646 0 0 0
645 1 68.9529113770 46.8896026611 34.1351013184 0 1.909859 645 0 0 0
1645 3 68.9529113796 46.8896026682 34.1351013226 0 1.909859 645 0 0 0
145 1 70.0674438477 45.5337066650 34.7343597412 0 1.909859 145 0 0 0
1145 3 70.0674438485 45.5337066724 34.7343597474 0 1.909859 145 0 0 0
914 1 55.3584098816 47.6757049561 34.4580841064 0 1.909859 914 0 0 0
1914 3 55.3584098885 47.6757049659 34.4580841106 0 1.909859 914 0 0 0
913 1 56.8572959900 48.2638854980 34.8802795410 0 1.909859 913 0 0 0
1913 3 56.8572959974 48.2638854984 34.8802795432 0 1.909859 913 0 0 0
699 1 58.2316551208 48.5037689209 33.3747253418 0 1.909859 699 0 0 0
1699 3 58.2316551303 48.5037689245 33.3747253440 0 1.909859 699 0 0 0
198 1 59.9236869812 47.2108917236 33.8072509766 0 1.909859 198 0 0 0
1198 3 59.9236869827 47.2108917299 33.8072509826 0 1.909859 198 0 0 0
698 1 59.6509513855 48.8197479248 33.5498352051 0 1.909859 698 0 0 0
1698 3 59.6509513892 48.8197479293 33.5498352059 0 1.909859 698 0 0 0
197 1 61.3767662048 47.2679138184 33.5794067383 0 1.909859 197 0 0 0
1197 3 61.3767662145 47.2679138257 33.5794067395 0 1.909859 197 0 0 0
697 1 61.0850486755 48.6643981934 33.6746215820 0 1.909859 697 0 0 0
1697 3 61.0850486757 48.6643981982 33.6746215834 0 1.909859 697 0 0 0
196 1 61.9103965759 47.7304992676 35.0680541992 0 1.909859 196 0 0 0
1196 3 61.9103965836 47.7304992773 35.0680542051 0 1.909859 196 0 0 0
689 1 64.0836486816 47.1114807129 33.2292480469 0 1.909859 689 0 0 0
1689 3 64.0836486819 47.1114807203 33.2292480563 0 1.909859 689 0 0 0
190 1 66.3930053711 47.5514678955 33.1642608643 0 1.909859 190 0 0 0
1190 3 66.3930053759 47.5514679019 33.1642608707 0 1.909859 190 0 0 0
191 1 66.4483032227 47.6923065186 34.5902709961 0 1.909859 191 0 0 0
1191 3 66.4483032326 47.6923065240 34.5902710041 0 1.909859 191 0 0 0
695 1 63.5052146912 49.9093017578 35.0166473389 0 1.909859 695 0 0 0
1695 3 63.5052146941 49.9093017643 35.0166473407 0 1.909859 695 0 0 0
696 1 62.1880455017 49.2193145752 34.1758117676 0 1.909859 696 0 0 0
1696 3 62.1880455095 49.2193145795 34.1758117757 0 1.909859 696 0 0 0
691 1 66.4693908691 49.1168212891 34.2296295166 0 1.909859 691 0 0 0
1691 3 66.4693908772 49.1168212894 34.2296295236 0 1.909859 691 0 0 0
86 1 62.5119285583 30.4774322510 36.3031616211 0 1.909859 86 0 0 0
1086 3 62.5119285624 30.4774322595 36.3031616229 0 1.909859 86 0 0 0
843 1 56.8476219177 32.0935974121 36.9614105225 0 1.909859 843 0 0 0
1843 3 56.8476219195 32.0935974145 36.9614105252 0 1.909859 843 0 0 0
342 1 56.5550804138 32.3820190430 35.3007202148 0 1.909859 342 0 0 0
1342 3 56.5550804227 32.3820190473 35.3007202219 0 1.909859 342 0 0 0
842 1 57.9304466248 32.0780792236 35.9268646240 0 1.909859 842 0 0 0
1842 3 57.9304466284 32.0780792243 35.9268646332 0 1.909859 842 0 0 0
85 1 63.2697563171 31.0959930420 35.3923492432 0 1.909859 85 0 0 0
1085 3 63.2697563180 31.0959930449 35.3923492452 0 1.909859 85 0 0 0
585 1 62.4840965271 32.6469879150 35.3395690918 0 1.909859 585 0 0 0
1585 3 62.4840965273 32.6469879199 35.3395690940 0 1.909859 585 0 0 0
586 1 61.9455528259 31.8203735352 36.7225036621 0 1.909859 586 0 0 0
1586 3 61.9455528296 31.8203735446 36.7225036668 0 1.909859 586 0 0 0
84 1 64.2271270752 32.4221649170 35.9961242676 0 1.909859 84 0 0 0
1084 3 64.2271270760 32.4221649193 35.9961242698 0 1.909859 84 0 0 0
331 1 66.8679656982 32.6751403809 35.8586730957 0 1.909859 331 0 0 0
1331 3 66.8679657066 32.6751403830 35.8586730987 0 1.909859 331 0 0 0
345 1 53.7641410828 34.2794036865 36.6925506592 0 1.909859 345 0 0 0
1345 3 53.7641410884 34.2794036899 36.6925506619 0 1.909859 345 0 0 0
344 1 54.7635154724 33.3978881836 36.2077789307 0 1.909859 344 0 0 0
1344 3 54.7635154732 33.3978881927 36.2077789335 0 1.909859 344 0 0 0
343 1 56.5512657166 33.5893707275 36.4006805420 0 1.909859 343 0 0 0
1343 3 56.5512657232 33.5893707353 36.4006805486 0 1.909859 343 0 0 0
841 1 58.1846122742 33.7041320801 35.6622009277 0 1.909859 841 0 0 0
1841 3 58.1846122763 33.7041320840 35.6622009288 0 1.909859 841 0 0 0
581 1 60.6999168396 34.1731719971 36.5434417725 0 1.909859 581 0 0 0
1581 3 60.6999168461 34.1731720000 36.5434417764 0 1.909859 581 0 0 0
583 1 63.2615165710 34.1739349365 35.7740783691 0 1.909859 583 0 0 0
1583 3 63.2615165740 34.1739349452 35.7740783747 0 1.909859 583 0 0 0
582 1 62.2197074890 34.8815155029 36.5558776855 0 1.909859 582 0 0 0
1582 3 62.2197074955 34.8815155128 36.5558776862 0 1.909859 582 0 0 0
831 1 65.7987823486 33.3342285156 36.5823516846 0 1.909859 831 0 0 0
1831 3 65.7987823505 33.3342285161 36.5823516885 0 1.909859 831 0 0 0
832 1 66.4360656738 34.3600463867 35.5558013916 0 1.909859 832 0 0 0
1832 3 66.4360656828 34.3600463884 35.5558013987 0 1.909859 832 0 0 0
321 1 69.1896820068 34.8775024414 36.9657897949 0 1.909859 321 0 0 0
1321 3 69.1896820153 34.8775024476 36.9657898028 0 1.909859 321 0 0 0
352 1 54.8384971619 35.2369079590 35.3245086670 0 1.909859 352 0 0 0
1352 3 54.8384971676 35.2369079669 35.3245086732 0 1.909859 352 0 0 0
851 1 54.0087699890 36.7209930420 36.3118286133 0 1.909859 851 0 0 0
1851 3 54.0087699907 36.7209930423 36.3118286218 0 1.909859 851 0 0 0
351 1 55.4393577576 36.0029907227 36.8049011230 0 1.909859 351 0 0 0
1351 3 55.4393577638 36.0029907277 36.8049011291 0 1.909859 351 0 0 0
874 1 57.4612388611 36.7639465332 35.7372894287 0 1.909859 874 0 0 0
1874 3 57.4612388633 36.7639465418 35.7372894300 0 1.909859 874 0 0 0
372 1 60.5514945984 36.2785034180 36.8206787109 0 1.909859 372 0 0 0
1372 3 60.5514946021 36.2785034254 36.8206787190 0 1.909859 372 0 0 0
872 1 60.2894554138 35.9393005371 35.2839202881 0 1.909859 872 0 0 0
1872 3 60.2894554140 35.9393005409 35.2839202979 0 1.909859 872 0 0 0
871 1 61.5148429871 36.9314880371 35.3025054932 0 1.909859 871 0 0 0
1871 3 61.5148429949 36.9314880394 35.3025054968 0 1.909859 871 0 0 0
870 1 62.9525260925 36.4864501953 35.8574066162 0 1.909859 870 0 0 0
1870 3 62.9525260953 36.4864501998 35.8574066163 0 1.909859 870 0 0 0
869 1 64.1138916016 35.9224243164 36.5041198730 0 1.909859 869 0 0 0
1869 3 64.1138916057 35.9224243200 36.5041198759 0 1.909859 869 0 0 0
833 1 67.3680572510 35.6160736084 35.5911102295 0 1.909859 833 0 0 0
1833 3 67.3680572519 35.6160736100 35.5911102313 0 1.909859 833 0 0 0
320 1 69.6890716553 35.4990234375 35.4469757080 0 1.909859 320 0 0 0
1320 3 69.6890716589 35.4990234469 35.4469757153 0 1.909859 320 0 0 0
820 1 70.5397796631 35.9862670898 36.3873901367 0 1.909859 820 0 0 0
1820 3 70.5397796666 35.9862670911 36.3873901400 0 1.909859 820 0 0 0
881 1 52.3680534363 38.0750427246 35.3052825928 0 1.909859 881 0 0 0
1881 3 52.3680534451 38.0750427252 35.3052825955 0 1.909859 881 0 0 0
882 1 52.3381614685 37.1181793213 36.5124664307 0 1.909859 882 0 0 0
1882 3 52.3381614715 37.1181793226 36.5124664315 0 1.909859 882 0 0 0
382 1 52.5822868347 38.4806213379 37.0351409912 0 1.909859 382 0 0 0
1382 3 52.5822868437 38.4806213471 37.0351409990 0 1.909859 382 0 0 0
375 1 56.5144615173 38.4365844727 35.9797973633 0 1.909859 375 0 0 0
1375 3 56.5144615249 38.4365844763 35.9797973654 0 1.909859 375 0 0 0
373 1 59.2660636902 37.4226531982 36.0439300537 0 1.909859 373 0 0 0
1373 3 59.2660636916 37.4226532073 36.0439300627 0 1.909859 373 0 0 0
374 1 57.9463005066 38.1757354736 36.5515289307 0 1.909859 374 0 0 0
1374 3 57.9463005088 38.1757354765 36.5515289362 0 1.909859 374 0 0 0
371 1 61.1148643494 37.7731475830 36.6322174072 0 1.909859 371 0 0 0
1371 3 61.1148643496 37.7731475846 36.6322174111 0 1.909859 371 0 0 0
365 1 65.3484802246 38.1312866211 36.7969970703 0 1.909859 365 0 0 0
1365 3 65.3484802344 38.1312866299 36.7969970794 0 1.909859 365 0 0 0
864 1 66.7237243652 38.8812866211 36.0710449219 0 1.909859 864 0 0 0
1864 3 66.7237243735 38.8812866231 36.0710449286 0 1.909859 864 0 0 0
865 1 66.4197692871 37.2712860107 36.0476379395 0 1.909859 865 0 0 0
1865 3 66.4197692960 37.2712860194 36.0476379420 0 1.909859 865 0 0 0
311 1 68.8992767334 37.3212738037 36.9040374756 0 1.909859 311 0 0 0
1311 3 68.8992767347 37.3212738100 36.9040374856 0 1.909859 311 0 0 0
312 1 68.4573822021 38.7606201172 36.3578948975 0 1.909859 312 0 0 0
1312 3 68.4573822076 38.7606201261 36.3578949005 0 1.909859 312 0 0 0
819 1 70.8106536865 37.1902923584 35.4573364258 0 1.909859 819 0 0 0
1819 3 70.8106536885 37.1902923650 35.4573364259 0 1.909859 819 0 0 0
810 1 70.5381622314 38.5525665283 36.9242553711 0 1.909859 810 0 0 0
1810 3 70.5381622342 38.5525665340 36.9242553756 0 1.909859 810 0 0 0
381 1 53.4998741150 39.4125061035 35.9340820312 0 1.909859 381 0 0 0
1381 3 53.4998741234 39.4125061092 35.9340820344 0 1.909859 381 0 0 0
948 1 56.5798454285 41.0186462402 36.1694183350 0 1.909859 948 0 0 0
1948 3 56.5798454380 41.0186462414 36.1694183353 0 1.909859 948 0 0 0
947 1 58.0711021423 40.4564819336 35.7871093750 0 1.909859 947 0 0 0
1947 3 58.0711021506 40.4564819420 35.7871093782 0 1.909859 947 0 0 0
946 1 59.0957603455 39.8594818115 36.7774047852 0 1.909859 946 0 0 0
1946 3 59.0957603547 39.8594818140 36.7774047904 0 1.909859 946 0 0 0
945 1 60.1215934753 39.4302825928 35.8227844238 0 1.909859 945 0 0 0
1945 3 60.1215934799 39.4302825964 35.8227844251 0 1.909859 945 0 0 0
445 1 60.9540672302 40.6760101318 36.7422332764 0 1.909859 445 0 0 0
1445 3 60.9540672305 40.6760101412 36.7422332795 0 1.909859 445 0 0 0
364 1 65.1975097656 39.4140167236 35.5657043457 0 1.909859 364 0 0 0
1364 3 65.1975097704 39.4140167334 35.5657043510 0 1.909859 364 0 0 0
219 1 63.6748466492 39.9293518066 37.0594482422 0 1.909859 219 0 0 0
1219 3 63.6748466582 39.9293518133 37.0594482456 0 1.909859 219 0 0 0
313 1 68.1075439453 40.5734100342 35.7827758789 0 1.909859 313 0 0 0
1313 3 68.1075439471 40.5734100382 35.7827758833 0 1.909859 313 0 0 0
813 1 69.2428588867 40.9915924072 36.3735656738 0 1.909859 813 0 0 0
1813 3 69.2428588964 40.9915924110 36.3735656752 0 1.909859 813 0 0 0
952 1 52.0042839050 43.0051727295 36.1592407227 0 1.909859 952 0 0 0
1952 3 52.0042839128 43.0051727340 36.1592407316 0 1.909859 952 0 0 0
950 1 54.4915428162 42.0133819580 35.8148498535 0 1.909859 950 0 0 0
1950 3 54.4915428246 42.0133819602 35.8148498571 0 1.909859 950 0 0 0
449 1 56.8621330261 42.7247924805 36.1005859375 0 1.909859 449 0 0 0
1449 3 56.8621330345 42.7247924830 36.1005859388 0 1.909859 449 0 0 0
949 1 55.7435874939 41.9193725586 35.3650817871 0 1.909859 949 0 0 0
1949 3 55.7435874964 41.9193725635 35.3650817926 0 1.909859 949 0 0 0
448 1 57.8227958679 41.9759216309 36.7005310059 0 1.909859 448 0 0 0
1448 3 57.8227958740 41.9759216310 36.7005310122 0 1.909859 448 0 0 0
447 1 59.4049186707 41.4734649658 36.1072082520 0 1.909859 447 0 0 0
1447 3 59.4049186796 41.4734649748 36.1072082589 0 1.909859 447 0 0 0
444 1 61.3936576843 41.2713775635 35.2962799072 0 1.909859 444 0 0 0