ITEM: TIMESTEP
0
ITEM: NUMBER OF ATOMS
8750
ITEM: BOX BOUNDS pp pp pp
0.0000000000000000e+00 1.2323757500000001e+02
0.0000000000000000e+00 8.2158383999999998e+01
0.0000000000000000e+00 8.2158383999999998e+01
ITEM: ATOMS type id mol xu yu zu
1 1 1 61.2157 51.4905 36.5242
1 2 2 61.4654 51.3577 37.9593
1 3 3 62.0964 52.4783 37.2618
1 4 4 62.5045 53.6156 38.0177
1 5 5 62.6860 52.5760 38.9446
1 6 6 63.4212 52.0784 40.0945
1 7 7 62.8528 50.9431 39.4254
1 8 8 64.0476 50.9493 38.5885
1 9 9 63.4818 50.0605 37.6549
1 10 10 64.7400 50.5743 37.2216
1 11 11 66.1501 50.6949 37.8066
1 12 12 65.7969 49.5075 38.3885
1 13 13 66.7303 48.4927 37.7657
1 14 14 66.1034 47.3957 38.3378
1 15 15 67.2374 46.9789 39.1584
1 16 16 67.1605 47.3151 40.6040
1 17 17 68.2069 48.0448 41.3691
1 18 18 68.4999 49.4614 40.8633
1 19 19 68.6490 50.8586 41.0357
1 20 20 67.1323 50.6651 41.2768
1 21 21 67.0794 50.6706 42.6799
1 22 22 68.4647 50.8190 43.3196
1 23 23 67.7547 51.4881 44.3654
1 24 24 68.6766 51.5525 45.4324
1 25 25 69.0221 52.2185 46.7267
1 26 26 70.1616 52.0310 47.6520
1 27 27 70.3361 52.0686 48.9479
1 28 28 71.1298 52.5022 50.1226
1 29 29 72.5207 52.3308 50.2856
1 30 30 73.9893 52.0332 49.9873
1 31 31 75.3428 52.2564 50.4545
1 32 32 74.7287 51.6358 51.6614
1 33 33 74.2977 50.4156 51.7999
1 34 34 74.7950 49.5297 50.8548
1 35 35 74.4865 48.4649 51.6975
1 36 36 73.1051 48.0726 51.5453
1 37 37 72.2241 47.8939 50.5574
1 38 38 71.3587 47.2119 51.6300
1 39 39 70.9997 45.9608 50.6853
1 40 40 69.9820 45.6862 49.8034
1 41 41 70.8818 44.5800 49.4213
1 42 42 71.5280 43.6382 48.3878
1 43 43 70.8979 42.6563 47.6072
1 44 44 69.6948 43.4275 48.2913
1 45 45 68.6738 43.5251 47.2814
1 46 46 68.1957 44.7469 47.9797
1 47 47 68.2624 45.9520 47.3198
1 48 48 67.6621 46.6364 48.4581
1 49 49 66.6785 45.6943 47.5173
1 50 50 65.3228 45.7137 47.1702
1 51 51 65.4160 46.0341 48.7160
1 52 52 64.2213 46.6399 48.1071
1 53 53 63.7472 45.4104 48.6575
1 54 54 64.1644 44.2455 49.3458
1 55 55 64.2062 43.3192 50.3299
1 56 56 63.2886 42.3764 49.7338
1 57 57 63.0201 41.4450 50.7656
1 58 58 61.8877 40.6797 50.9401
1 59 59 61.1257 41.3176 51.9475
1 60 60 60.4874 42.5353 51.9791
1 61 61 60.0976 43.5781 52.8292
1 62 62 59.0492 44.5872 53.1634
1 63 63 59.3156 45.9563 53.4779
1 64 64 59.7157 46.3481 54.9463
1 65 65 59.6755 46.3433 56.3681
1 66 66 58.8342 47.2050 55.6812
1 67 67 59.4016 48.3071 56.7024
1 68 68 58.7181 49.3793 56.2691
1 69 69 59.2077 49.1849 54.9152
1 70 70 59.2157 48.0950 54.1411
1 71 71 57.9038 48.1228 53.8571
1 72 72 56.5047 47.6117 53.9046
1 73 73 55.9984 46.4021 53.5615
1 74 74 56.3951 45.6166 54.8646
1 75 75 55.2807 45.9187 55.8882
1 76 76 54.6199 45.5889 54.6815
1 77 77 53.9421 46.1512 53.3829
1 78 78 55.2897 46.1390 53.1535
1 79 79 56.3980 46.2418 52.3393
1 80 80 56.3765 44.7713 52.2745
1 81 81 57.0802 44.7596 51.0164
1 82 82 56.7240 43.6765 50.3140
1 83 83 55.4526 43.5340 49.7887
1 84 84 55.3382 42.8984 50.9973
1 85 85 54.0390 42.9938 50.7545
1 86 86 53.6448 41.6870 50.2649
1 87 87 53.7552 41.5668 48.8119
1 88 88 54.5142 41.5169 47.5329
1 89 89 55.2028 41.0216 48.6111
1 90 90 55.6472 39.8482 48.4523
1 91 91 55.0602 38.6451 48.1194
1 92 92 54.6140 37.5096 48.5634
1 93 93 55.1924 36.3050 47.8093
1 94 94 55.1247 36.7569 46.5847
1 95 95 54.7231 35.7181 45.6616
1 96 96 54.8400 37.1011 45.3855
1 97 97 54.8551 36.3543 44.1452
1 98 98 55.9082 35.3091 44.2331
1 99 99 55.9350 35.2235 42.8583
1 100 100 57.2024 34.7280 42.9439
1 101 101 57.5969 33.4139 42.5255
1 102 102 58.5054 32.5250 43.2628
1 103 103 57.6918 31.7882 42.2118
1 104 104 58.4264 30.6012 42.4726
1 105 105 59.3010 29.7775 43.1100
1 106 106 60.1563 29.6915 44.1171
1 107 107 61.2883 28.9321 44.4095
1 108 108 60.8546 29.3379 45.7900
1 109 109 61.0705 28.4888 46.7717
1 110 110 59.8281 28.9311 46.4041
1 111 111 59.8563 29.0677 47.8540
1 112 112 60.0134 29.7899 49.2108
1 113 113 60.7795 30.7201 49.9605
1 114 114 61.6725 30.4741 51.1152
1 115 115 63.1993 30.3226 51.2279
1 116 116 64.5762 29.9353 51.0824
1 117 117 65.6688 28.8008 50.9801
1 118 118 65.7860 29.8458 50.0756
1 119 119 65.3873 29.8103 48.7717
1 120 120 66.5865 29.4230 47.9910
1 121 121 67.3178 28.5490 48.6479
1 122 122 68.4222 28.9318 47.9592
1 123 123 67.7654 28.8724 46.7163
1 124 124 68.5711 28.3998 45.6376
1 125 125 69.9527 28.3684 45.2850
1 126 126 69.3655 27.4013 44.3235
1 127 127 70.2714 26.4663 44.7415
1 128 128 70.6536 26.5770 43.4446
1 129 129 70.1947 28.0368 43.6352
1 130 130 70.8729 27.6532 42.4406
1 131 131 70.6200 28.4685 41.2960
1 132 132 71.1926 29.4158 42.1624
1 133 133 71.8213 28.4526 43.0683
1 134 134 72.5486 28.1611 41.9442
1 135 135 72.1942 27.3361 40.7928
1 136 136 73.5137 26.8304 40.5477
1 137 137 73.8908 27.6136 41.7899
1 138 138 74.5603 28.7967 41.4094
1 139 139 74.6920 29.9176 40.5224
1 140 140 74.9272 31.1918 40.0682
1 141 141 74.8069 32.5502 39.8183
1 142 142 75.0816 33.7152 39.1144
1 143 143 74.1393 34.7681 39.2873
1 144 144 74.1000 35.0848 40.5654
1 145 145 72.9198 35.8549 40.5698
1 146 146 71.8179 36.7426 40.7138
1 147 147 72.1844 36.0018 41.9051
1 148 148 73.1629 36.2382 42.8186
1 149 149 74.4870 36.1243 42.8902
1 150 150 74.4664 36.2765 41.3905
1 151 151 75.6317 36.8141 41.4732
1 152 152 75.9159 35.5971 42.2949
1 153 153 75.9834 34.2290 42.7283
1 154 154 74.5951 34.5592 42.6708
1 155 155 74.4412 33.4771 43.4240
1 156 156 73.0830 33.4062 43.7211
1 157 157 72.2052 34.2440 43.2208
1 158 158 71.5265 34.2832 44.4881
1 159 159 71.6417 34.6586 45.8181
1 160 160 70.3468 34.2263 46.1253
1 161 161 69.0535 33.7135 46.4484
1 162 162 67.8717 34.6007 45.8627
1 163 163 66.5449 34.0908 45.8696
1 164 164 66.1415 34.0519 47.2716
1 165 165 65.4797 34.7284 46.3550
1 166 166 65.7965 35.4360 45.0570
1 167 167 66.3579 34.4580 44.4287
1 168 168 66.0546 35.0740 43.1325
1 169 169 66.2450 36.4170 42.3723
1 170 170 66.7772 37.7762 42.6200
1 171 171 66.7669 37.2783 41.2495
1 172 172 67.9851 37.4447 40.4910
1 173 173 67.5633 38.1055 39.1988
1 174 174 67.1251 38.8733 40.1748
1 175 175 67.5493 40.1216 39.8746
1 176 176 66.3635 40.8730 39.3420
1 177 177 65.9727 40.2347 38.2508
1 178 178 65.2384 40.6068 39.3891
1 179 179 65.6399 39.2172 39.5710
1 180 180 64.2989 39.4586 39.1437
1 181 181 63.1746 38.7661 38.7483
1 182 182 64.0132 37.8339 39.3137
1 183 183 64.4164 37.8093 37.9359
1 184 184 65.6358 37.1542 37.3490
1 185 185 65.6592 36.3125 36.3225
1 186 186 66.3659 35.6322 37.2722
1 187 187 67.4545 35.0796 37.7546
1 188 188 68.2546 34.4181 36.7000
1 189 189 68.5332 35.8186 36.7424
1 190 190 68.2489 37.2340 36.8051
1 191 191 67.5093 37.4682 37.8936
1 192 192 66.8678 38.5071 37.4522
1 193 193 67.3576 39.2310 36.3026
1 194 194 68.7608 39.0843 36.5907
1 195 195 68.2767 40.0444 37.6018
1 196 196 69.4962 40.4087 38.1245
1 197 197 69.6567 40.7816 36.7955
1 198 198 70.5772 41.9925 36.2742
1 199 199 70.5581 43.1664 35.6092
1 200 200 71.2438 43.9426 36.5622
1 201 201 71.9836 44.8226 37.3906
1 202 202 72.6235 43.6013 36.9549
1 203 203 73.5903 42.5361 36.3434
1 204 204 73.9677 41.7616 37.6479
1 205 205 74.9970 41.5395 38.5224
1 206 206 75.6350 41.0816 39.5945
1 207 207 76.4926 41.3280 40.8852
1 208 208 77.4819 42.3364 41.1677
1 209 209 78.4043 42.1506 42.0931
1 210 210 77.7917 42.4382 43.2478
1 211 211 77.2062 43.3723 44.2172
1 212 212 76.4009 42.9856 45.2454
1 213 213 76.0951 42.7914 46.6500
1 214 214 76.5930 44.1046 47.0072
1 215 215 76.7565 44.7353 48.1875
1 216 216 76.0436 43.6311 48.8098
1 217 217 77.2451 43.2228 48.5940
1 218 218 77.1316 41.8300 48.6813
1 219 219 75.7453 42.2950 48.1484
1 220 220 75.9316 41.0016 47.8728
1 221 221 77.1122 41.0579 47.0974
1 222 222 78.2394 40.5044 46.6854
1 223 223 78.6725 39.6055 45.8539
1 224 224 77.4809 39.7107 45.0314
1 225 225 76.6167 40.8293 44.6432
1 226 226 76.3401 40.7143 43.2615
1 227 227 75.0575 40.6472 43.9187
1 228 228 74.1590 41.2438 44.7084
1 229 229 72.7431 40.9231 44.4273
1 230 230 72.8519 42.2220 43.8144
1 231 231 73.0190 42.9944 44.9781
1 232 232 72.1326 43.3216 45.9658
1 233 233 71.0839 42.2401 45.9034
1 234 234 69.8815 42.6336 46.4013
1 235 235 68.9305 41.5116 45.8684
1 236 236 70.1311 40.8364 46.2513
1 237 237 69.9793 40.2380 44.9751
1 238 238 70.7695 39.9569 43.9202
1 239 239 70.2349 41.0331 42.8753
1 240 240 69.3727 42.0942 43.0046
1 241 241 69.7830 42.7110 41.7877
1 242 242 68.7351 43.4893 41.2762
1 243 243 68.1348 44.6262 40.8429
1 244 244 68.7062 44.4015 42.2435
1 245 245 68.2156 45.1951 43.2372
1 246 246 67.2392 44.4418 43.9837
1 247 247 66.7691 43.0421 44.5696
1 248 248 65.4031 43.2581 44.8324
1 249 249 64.1017 43.6418 45.3748
1 250 250 62.7292 43.7135 44.9000
1 251 251 61.6942 44.2964 44.0983
1 252 252 62.4861 43.6167 43.0539
1 253 253 61.8026 44.4880 42.1626
1 254 254 62.4900 45.6444 41.6139
1 255 255 63.5710 45.1285 40.7247
1 256 256 62.3499 45.1658 39.9492
1 257 257 61.3362 46.0613 40.1061
1 258 258 60.3033 46.0468 41.0449
1 259 259 59.6589 46.5571 42.3119
1 260 260 58.6614 47.4294 41.7670
1 261 261 59.3697 48.5664 41.5312
1 262 262 58.3859 48.9932 42.4760
1 263 263 58.1134 48.6775 43.8244
1 264 264 57.1592 47.5765 43.4993
1 265 265 56.0318 47.3386 42.5646
1 266 266 56.0415 45.9717 43.2216
1 267 267 55.5601 45.8985 44.5034
1 268 268 55.6467 47.2255 44.8240
1 269 269 55.1481 47.1292 46.1606
1 270 270 55.3541 45.8044 45.7071
1 271 271 54.0615 45.3278 46.2058
1 272 272 53.7983 43.9536 46.4413
1 273 273 52.7710 43.6263 45.3654
1 274 274 51.6923 43.8203 44.4878
1 275 275 51.8758 42.5398 44.0768
1 276 276 51.0330 42.3053 42.9395
1 277 277 52.2879 42.9321 42.6804
1 278 278 51.4747 43.0445 41.5004
1 279 279 50.4221 43.4221 40.6843
1 280 280 50.8540 42.1822 40.0503
1 281 281 50.8950 42.8536 38.7961
1 282 282 49.5606 42.4841 38.5900
1 283 283 49.7134 41.1568 37.8403
1 284 284 50.8230 41.6570 37.2172
1 285 285 50.8369 42.8209 36.4332
1 286 286 50.8806 44.0107 37.3470
1 287 287 50.6630 44.5018 36.1675
1 288 288 50.0672 45.8231 36.2716
1 289 289 49.0796 45.7977 35.2716
1 290 290 47.9275 46.5896 35.1131
1 291 291 46.7913 45.8225 35.1631
1 292 292 46.9132 46.4846 33.9323
1 293 293 46.5632 46.4994 32.5671
1 294 294 46.2386 46.1853 31.3245
1 295 295 47.3977 46.6804 30.9841
1 296 296 48.1442 47.4969 31.7952
1 297 297 48.0544 48.5906 32.8387
1 298 298 48.0835 48.7249 31.4210
1 299 299 49.3480 49.6416 31.1618
1 300 300 49.6239 49.4645 29.7879
1 301 301 50.8487 49.5153 28.9873
1 302 302 52.2878 49.2320 29.0817
1 303 303 52.1785 48.3040 28.0269
1 304 304 51.2713 47.2982 28.6256
1 305 305 51.7273 46.8252 29.9449
1 306 306 52.1794 46.4658 28.6771
1 307 307 51.9244 45.1125 29.3457
1 308 308 50.5261 44.9276 28.9267
1 309 309 50.5440 43.5545 28.3393
1 310 310 51.0452 43.0282 27.2278
1 311 311 49.7070 42.6596 26.7737
1 312 312 49.5138 41.4609 27.8372
1 313 313 50.7033 40.8061 28.2237
1 314 314 52.1068 40.8051 28.2922
1 315 315 52.3044 39.7515 29.1431
1 316 316 51.9658 40.1959 30.4436
1 317 317 50.6478 39.5608 30.0466
1 318 318 49.3940 40.0344 30.3916
1 319 319 49.6432 40.1312 31.8012
1 320 320 49.2088 38.7943 32.3153
1 321 321 48.8225 38.9511 33.5914
1 322 322 49.9838 38.0024 33.0572
1 323 323 50.4272 37.1265 32.0520
1 324 324 51.6938 37.3207 31.3605
1 325 325 52.1903 37.0714 32.7110
1 326 326 53.2804 37.9732 33.2133
1 327 327 54.6586 37.8125 32.8577
1 328 328 55.2783 37.2583 34.0532
1 329 329 54.6005 37.1399 35.2850
1 330 330 54.9132 36.4236 36.3599
1 331 331 55.8387 37.1872 36.7579
1 332 332 57.1564 37.4560 36.8753
1 333 333 57.0365 36.3990 35.9894
1 334 334 57.5834 35.5346 35.1554
1 335 335 57.2957 34.1509 34.9062
1 336 336 58.1474 32.9860 35.6376
1 337 337 57.3344 31.6416 35.8008
1 338 338 58.5285 31.0480 35.7365
1 339 339 57.3653 30.8221 34.9893
1 340 340 58.1504 30.5601 33.9580
1 341 341 57.1407 31.2453 33.1998
1 342 342 56.5703 32.3819 32.8030
1 343 343 57.1599 33.5165 33.2990
1 344 344 55.8039 33.6102 33.9425
1 345 345 54.8161 34.0006 34.7243
1 346 346 53.5157 33.6038 35.0054
1 347 347 53.1001 34.2617 33.8865
1 348 348 54.3299 33.8922 33.4153
1 349 349 54.5454 34.0799 31.9995
1 350 350 54.5468 35.4318 32.7854
1 351 351 54.2717 36.5399 31.9507
1 352 352 53.6801 37.6066 31.3951
1 353 353 54.0473 38.8114 30.8266
1 354 354 54.2795 38.9597 29.3817
1 355 355 54.6906 38.5176 28.0263
1 356 356 55.5250 39.6791 27.7925
1 357 357 54.7547 40.1885 26.7174
1 358 358 54.3948 41.0389 25.6187
1 359 359 55.3575 42.0105 25.1963
1 360 360 56.4561 42.3683 25.8412
1 361 361 57.8257 42.4480 25.5870
1 362 362 58.0196 43.6937 26.0410
1 363 363 57.4319 43.9245 27.1837
1 364 364 58.3408 43.9370 28.3918
1 365 365 57.3979 44.6954 29.2683
1 366 366 56.0227 44.8057 29.2920
1 367 367 54.9381 44.5580 30.2864
1 368 368 53.7288 45.2051 29.9738
1 369 369 53.8840 44.8266 28.5968
1 370 370 53.5594 44.1360 27.4654
1 371 371 53.0185 44.7405 26.4893
1 372 372 52.0003 44.4376 25.4510
1 373 373 52.5665 43.7068 24.5061
1 374 374 52.0317 42.5436 24.7886
1 375 375 51.5428 41.3913 24.2906
1 376 376 51.4341 40.5333 25.4134
1 377 377 52.2124 39.3339 25.0737
1 378 378 53.4536 38.6502 24.7649
1 379 379 54.8153 38.9600 24.5260
1 380 380 55.4789 40.0482 25.0889
1 381 381 56.8258 39.7347 24.7961
1 382 382 57.8889 40.8078 25.0454
1 383 383 57.4257 41.4117 23.9258
1 384 384 57.0777 41.3038 22.4889
1 385 385 56.9172 42.7617 22.9156
1 386 386 57.4787 43.9576 22.3597
1 387 387 57.3311 45.0944 23.2023
1 388 388 58.5035 45.7003 23.3724
1 389 389 58.6751 46.6471 24.4927
1 390 390 60.0414 46.2290 24.3859
1 391 391 60.2453 44.9874 24.9271
1 392 392 61.4349 44.2891 25.3576
1 393 393 61.7714 45.1019 26.5496
1 394 394 62.6604 46.1300 26.8129
1 395 395 62.6705 47.0050 25.6844
1 396 396 61.8579 47.3590 26.7776
1 397 397 60.9448 46.7180 27.8269
1 398 398 61.6758 46.1384 28.9833
1 399 399 61.6952 45.1866 29.8245
1 400 400 60.2340 45.1671 29.5751
1 401 401 60.0414 46.2771 30.5506
1 402 402 58.7778 45.8367 31.0260
1 403 403 57.3807 45.3824 31.2144
1 404 404 56.5833 45.0170 32.3669
1 405 405 56.3415 44.9327 33.6761
1 406 406 57.3522 43.9299 33.5136
1 407 407 56.4444 43.2621 34.4555
1 408 408 56.7860 41.8300 34.1012
1 409 409 58.1140 42.3003 33.5177
1 410 410 59.2429 41.6413 33.8149
1 411 411 59.5533 42.9335 34.2757
1 412 412 59.5690 44.1882 33.6814
1 413 413 58.7367 45.2853 33.3120
1 414 414 58.6995 46.5664 32.6315
1 415 415 57.9235 47.6388 33.2869
1 416 416 57.0210 48.0401 32.2765
1 417 417 56.1000 47.0087 32.5977
1 418 418 54.6331 47.1344 32.5089
1 419 419 53.2949 47.4172 32.8309
1 420 420 52.9258 48.8535 32.7522
1 421 421 51.4678 49.2306 32.6227
1 422 422 50.8392 49.5701 34.0162
1 423 423 50.1514 50.1799 34.9243
1 424 424 50.9455 51.3573 34.5285
1 425 425 49.7514 51.5519 33.6778
1 426 426 48.5707 51.6033 34.3813
1 427 427 48.8000 52.8164 34.7368
1 428 428 48.1442 53.1087 36.0809
1 429 429 48.5281 52.1436 36.7070
1 430 430 48.7010 53.5112 37.0720
1 431 431 48.3430 54.8060 37.5380
1 432 432 47.1487 54.6872 38.3893
1 433 433 47.5202 55.0804 39.7177
1 434 434 48.6909 54.1166 40.0070
1 435 435 48.8084 54.9925 41.0758
1 436 436 49.5258 55.5531 42.1668
1 437 437 50.8816 56.1716 42.1178
1 438 438 50.2803 56.6062 40.8081
1 439 439 49.8695 57.7189 39.7941
1 440 440 50.9249 56.9295 39.2086
1 441 441 50.8049 57.0406 37.7828
1 442 442 51.8214 57.6640 36.9840
1 443 443 53.0276 57.9658 36.0667
1 444 444 54.1003 57.5371 37.0369
1 445 445 54.6994 56.6547 38.0873
1 446 446 55.5484 56.6294 39.3480
1 447 447 56.3701 55.7167 39.8096
1 448 448 55.2731 54.8505 39.8497
1 449 449 56.2355 53.9594 40.2817
1 450 450 55.1245 53.9567 41.2442
1 451 451 54.3121 54.8950 41.7043
1 452 452 53.1982 54.1538 41.4304
1 453 453 52.8213 53.3166 42.6195
1 454 454 51.9265 52.3858 43.1796
1 455 455 52.8477 51.8207 42.2724
1 456 456 53.1739 51.5992 40.9540
1 457 457 52.0047 50.8760 41.3711
1 458 458 50.6448 51.3314 41.2014
1 459 459 49.5170 51.7281 42.1329
1 460 460 48.3052 52.1962 41.7894
1 461 461 48.5343 51.8734 43.2514
1 462 462 48.5587 51.9868 44.5798
1 463 463 49.6992 51.1900 44.9857
1 464 464 50.5151 52.0132 45.8086
1 465 465 51.6642 51.2028 45.1694
1 466 466 51.8162 50.0311 45.9365
1 467 467 51.1549 48.9440 45.2253
1 468 468 50.8637 48.9812 43.9339
1 469 469 51.5211 48.7566 42.7579
1 470 470 51.3789 47.7070 43.6973
1 471 471 52.0691 46.7952 42.8767
1 472 472 52.4393 46.4715 41.6024
1 473 473 53.4720 45.5525 41.9287
1 474 474 54.2250 45.1028 42.9693
1 475 475 54.3796 43.6235 42.7160
1 476 476 54.4812 42.9126 43.8890
1 477 477 56.1015 43.1762 43.7787
1 478 478 56.0392 42.9101 42.3156
1 479 479 56.6994 41.6730 41.7006
1 480 480 56.0461 40.5380 42.2190
1 481 481 56.1095 40.2859 40.7978
1 482 482 56.6741 39.4781 39.9860
1 483 483 57.7009 39.8200 40.9018
1 484 484 58.2900 40.2945 39.7150
1 485 485 58.9816 41.3896 39.0492
1 486 486 58.0853 40.7157 38.2017
1 487 487 58.8089 41.2481 37.2084
1 488 488 59.3710 40.2028 36.4147
1 489 489 60.3447 41.3066 36.2713
1 490 490 60.1537 42.1186 37.3607
1 491 491 60.6564 43.4047 37.1523
1 492 492 59.7400 44.6469 37.3968
1 493 493 58.6549 45.3665 37.9028
1 494 494 58.7715 46.3119 39.0744
1 495 495 58.5370 47.4850 38.4024
1 496 496 59.9726 47.7495 38.7506
1 497 497 60.0589 47.7908 37.4345
1 498 498 60.0073 49.3095 37.1502
1 499 499 58.8272 50.2379 37.0677
1 500 500 59.9552 51.0067 36.9471
1 501 501 47.9404 50.0480 49.9131
1 502 502 48.6880 48.9220 49.7892
1 503 503 48.4741 47.6559 50.3902
1 504 504 48.7674 47.8102 51.7579
1 505 505 49.4388 46.6205 52.0468
1 506 506 48.0816 46.1209 51.8453
1 507 507 46.9866 45.4877 52.5973
1 508 508 46.1820 46.6002 52.0675
1 509 509 45.0689 45.8827 51.8832
1 510 510 45.7342 46.5047 50.8015
1 511 511 46.3987 47.1424 49.5486
1 512 512 46.2959 46.8977 48.1348
1 513 513 47.2579 45.9002 47.9225
1 514 514 46.1168 45.1448 48.0585
1 515 515 45.1810 44.1414 47.9171
1 516 516 45.1191 43.2822 46.7826
1 517 517 45.5228 42.0389 46.8945
1 518 518 45.7175 41.1499 45.9582
1 519 519 46.8785 41.9823 46.0845
1 520 520 47.5414 40.9410 46.7293
1 521 521 48.4157 41.0780 47.7685
1 522 522 48.8510 42.3062 47.1235
1 523 523 49.5648 41.2982 46.4382
1 524 524 49.8907 40.8981 45.2143
1 525 525 49.1522 41.3947 44.1055
1 526 526 49.0425 42.1547 42.8613
1 527 527 47.8466 41.3910 42.7899
1 528 528 46.6784 42.0218 43.3620
1 529 529 46.3959 40.8213 43.8063
1 530 530 46.0482 39.4464 43.8082
1 531 531 47.2827 38.8177 43.1510
1 532 532 47.0601 37.7093 43.9945
1 533 533 46.9747 36.9666 45.1756
1 534 534 46.3557 37.2066 46.4896
1 535 535 46.9855 36.8073 47.6897
1 536 536 46.1655 36.1093 48.6054
1 537 537 47.2967 35.7047 49.4354
1 538 538 48.7420 36.0480 49.5454
1 539 539 49.4813 36.4267 48.3226
1 540 540 49.6672 36.0942 46.8561
1 541 541 50.9291 36.7245 46.4191
1 542 542 52.3384 36.7017 45.8755
1 543 543 52.9061 37.9529 45.8380
1 544 544 51.8066 38.6772 45.8499
1 545 545 52.3393 39.7349 46.7789
1 546 546 52.9185 39.9551 48.0496
1 547 547 53.9961 40.0291 47.1179
1 548 548 54.2727 40.8360 46.0935
1 549 549 54.7685 39.6111 45.6719
1 550 550 55.4645 39.9147 44.4143
1 551 551 55.5774 38.6520 43.8967
1 552 552 56.4275 37.5295 43.8155
1 553 553 57.4594 36.9561 44.4807
1 554 554 57.7844 38.0876 45.2613
1 555 555 56.6590 38.5121 45.9503
1 556 556 56.6868 38.6106 47.4814
1 557 557 56.4189 37.6747 48.3940
1 558 558 56.9121 38.0335 49.7200
1 559 559 57.3936 36.9017 50.1410
1 560 560 58.4156 36.6261 50.9124
1 561 561 59.5527 36.0044 50.3463
1 562 562 59.3556 37.0503 49.3766
1 563 563 60.7648 36.8055 49.0150
1 564 564 61.9927 36.2412 48.5157
1 565 565 61.2362 35.1056 49.0549
1 566 566 60.0075 34.4733 49.3586
1 567 567 59.3273 33.8442 50.5073
1 568 568 57.9529 33.9858 50.2861
1 569 569 57.6120 32.6720 49.7553
1 570 570 56.6294 31.9043 49.0718
1 571 571 56.6022 30.4862 49.3865
1 572 572 55.7872 29.8319 48.2303
1 573 573 56.5402 28.5618 47.7707
1 574 574 57.7921 28.2466 46.9643
1 575 575 57.1517 29.6496 46.5581
1 576 576 58.2054 29.6356 45.6838
1 577 577 59.0153 28.5686 45.2853
1 578 578 58.7041 28.0228 43.9144
1 579 579 58.7582 27.8597 42.4227
1 580 580 58.3966 28.6614 41.1794
1 581 581 59.5641 28.8276 40.4977
1 582 582 59.5842 29.6851 39.2562
1 583 583 58.8781 28.6882 38.6564
1 584 584 57.7223 28.1809 38.1450
1 585 585 56.5119 28.9018 38.0372
1 586 586 55.4697 28.6340 38.8252
1 587 587 55.5721 28.7796 40.3086
1 588 588 56.2826 28.6232 41.4826
1 589 589 56.2855 29.9177 42.2230
1 590 590 54.9484 29.5865 41.9937
1 591 591 53.6560 30.2078 41.8541
1 592 592 53.1532 29.5195 42.9670
1 593 593 52.4581 28.2390 42.9342
1 594 594 53.2930 28.1953 41.6337
1 595 595 52.6449 28.1927 40.4291
1 596 596 53.3081 29.5110 40.6517
1 597 597 54.0476 30.5302 39.9961
1 598 598 53.3288 31.8118 40.3070
1 599 599 52.5461 32.4517 41.2548
1 600 600 51.5459 33.3969 41.6075
1 601 601 52.3424 32.6250 42.4740
1 602 602 52.0036 31.9009 43.7171
1 603 603 53.3870 31.8379 43.4630
1 604 604 53.3077 32.9656 44.4576
1 605 605 54.7103 32.6053 44.8983
1 606 606 55.1087 32.1528 46.0945
1 607 607 56.1542 32.5132 45.1271
1 608 608 55.8733 31.3925 44.5191
1 609 609 55.8223 31.2307 43.0549
1 610 610 54.6302 30.4573 43.5718
1 611 611 55.0431 29.2124 44.0080
1 612 612 54.1851 29.5902 44.9735
1 613 613 53.8362 30.5732 45.9582
1 614 614 52.7300 30.5801 46.6702
1 615 615 53.4670 31.4303 47.7494
1 616 616 54.1330 31.3826 49.1603
1 617 617 53.1751 31.7718 50.2589
1 618 618 53.6938 31.7870 51.6111
1 619 619 53.6349 33.1825 51.4049
1 620 620 52.9455 32.9673 52.6125
1 621 621 53.2461 33.4058 53.9474
1 622 622 52.7435 32.9671 55.2488
1 623 623 53.4132 31.7315 55.9205
1 624 624 53.6649 32.9731 55.4614
1 625 625 54.2274 33.7045 56.5282
1 626 626 54.7025 34.9727 55.8890
1 627 627 55.2163 34.4377 54.6601
1 628 628 56.5537 33.6605 54.7321
1 629 629 57.0101 34.4178 53.6250
1 630 630 58.1151 35.3301 53.3534
1 631 631 58.5963 34.7411 54.5131
1 632 632 58.0962 35.4246 55.4118
1 633 633 58.9332 36.5227 55.7571
1 634 634 59.6197 35.3277 56.1008
1 635 635 58.9647 34.7226 57.1879
1 636 636 60.0859 34.7966 58.3068
1 637 637 61.1578 35.2287 59.1132
1 638 638 61.1815 36.6206 58.9132
1 639 639 60.0673 36.2884 58.1115
1 640 640 61.1028 37.0502 57.4197
1 641 641 61.7425 36.8273 56.1557
1 642 642 62.8487 37.6423 55.5468
1 643 643 62.0745 38.8293 55.5007
1 644 644 61.7443 39.5751 56.7133
1 645 645 60.5273 40.1980 56.8326
1 646 646 59.4409 41.3774 56.6841
1 647 647 58.5721 40.3733 56.2950
1 648 648 57.2554 40.1182 56.3569
1 649 649 56.6400 41.0840 55.4619
1 650 650 57.1160 41.1225 54.1285
1 651 651 57.8682 39.9004 53.7360
1 652 652 58.8435 40.7678 53.5193
1 653 653 59.3566 39.5018 53.9096
1 654 654 60.7252 39.3610 53.9092
1 655 655 61.3700 39.8388 52.7218
1 656 656 61.5848 38.5322 52.1916
1 657 657 63.0579 38.5951 52.0479
1 658 658 62.6451 37.2365 52.2554
1 659 659 63.7964 36.8111 53.0950
1 660 660 64.4405 38.0444 53.4639
1 661 661 64.8815 39.3527 52.7413
1 662 662 65.3238 39.8192 54.1832
1 663 663 66.0110 38.6673 53.8870
1 664 664 65.9256 37.2694 53.8773
1 665 665 66.0953 37.3272 55.3418
1 666 666 67.0030 38.5102 55.1183
1 667 667 68.4084 38.3410 54.9885
1 668 668 68.2563 39.7915 54.8596
1 669 669 68.0926 40.3876 56.2051
1 670 670 68.3441 41.6549 55.9340
1 671 671 67.7703 42.4193 56.9371
1 672 672 67.8613 43.8224 57.0140
1 673 673 66.8581 44.5735 56.3851
1 674 674 66.6486 43.9617 55.0660
1 675 675 66.2592 42.5567 54.9048
1 676 676 67.3519 43.4387 54.6870
1 677 677 68.6799 43.9287 55.0389
1 678 678 69.1934 44.6782 54.1502
1 679 679 69.2561 45.2205 55.5815
1 680 680 70.5397 45.1663 55.9880
1 681 681 71.2243 44.2231 55.1250
1 682 682 71.7776 42.8496 55.3787
1 683 683 71.1958 42.0008 54.3668
1 684 684 70.7850 40.7089 53.5955
1 685 685 71.2754 39.4162 53.3122
1 686 686 72.6023 39.9541 53.0325
1 687 687 72.3048 40.4297 51.5995
1 688 688 71.0208 39.8313 51.5604
1 689 689 71.7297 40.1101 50.3280
1 690 690 71.7145 38.7690 49.8609
1 691 691 70.5945 37.9763 50.2545
1 692 692 69.8156 38.4570 49.2656
1 693 693 70.5245 39.6430 49.4060
1 694 694 71.2828 39.2473 48.3416
1 695 695 71.9655 38.3798 47.3473
1 696 696 73.0785 37.8281 46.6312
1 697 697 73.7702 38.2788 45.4928
1 698 698 74.5909 38.8207 44.5306
1 699 699 75.5238 39.0859 45.5050
1 700 700 75.4925 37.9665 46.2518
1 701 701 75.4871 37.5388 47.4705
1 702 702 75.8457 37.8418 48.8814
1 703 703 74.5144 38.0955 49.0886
1 704 704 73.3541 37.6590 48.8023
1 705 705 72.5301 36.6678 48.3376
1 706 706 73.2228 35.8739 49.4130
1 707 707 74.5386 35.7867 49.9059
1 708 708 73.9637 34.5203 49.5511
1 709 709 72.7083 33.9818 50.0624
1 710 710 72.1813 34.5932 51.1820
1 711 711 72.9997 34.7628 52.1755
1 712 712 72.0881 35.7650 51.8134
1 713 713 71.7287 35.8476 53.1663
1 714 714 73.0956 35.9311 53.3507
1 715 715 74.2077 35.7011 54.1125
1 716 716 72.9947 36.0870 54.9293
1 717 717 72.1034 37.1556 55.4118
1 718 718 71.9710 36.5287 56.6289
1 719 719 72.4483 35.2562 56.2837
1 720 720 71.1497 34.8839 55.9937
1 721 721 70.2169 35.9442 55.7701
1 722 722 68.8294 35.6282 55.6589
1 723 723 67.9143 35.3965 56.7807
1 724 724 66.6812 35.7613 56.1131
1 725 725 67.1123 35.8104 54.8435
1 726 726 67.4998 35.1328 53.7789
1 727 727 67.9410 35.7569 52.5922
1 728 728 68.5539 34.9864 53.7348
1 729 729 68.9394 34.2860 52.5936
1 730 730 69.9912 33.6373 51.9072
1 731 731 69.4322 32.8015 50.9429
1 732 732 68.3714 33.6581 50.4545
1 733 733 67.0010 34.2262 50.2880
1 734 734 65.8652 34.8839 49.6740
1 735 735 65.4240 35.1391 48.3721
1 736 736 64.8607 36.1475 47.5878
1 737 737 63.8114 36.3664 46.5411
1 738 738 62.8324 37.3767 45.9965
1 739 739 62.3828 37.2175 44.6998
1 740 740 61.9531 38.5528 44.7480
1 741 741 62.9589 38.8596 43.8242
1 742 742 62.3231 38.5532 42.5585
1 743 743 63.4687 37.6321 42.3078
1 744 744 62.8695 37.3117 41.0320
1 745 745 63.2348 35.8392 41.2100
1 746 746 62.1589 35.2337 41.6819
1 747 747 61.7631 34.1010 42.7095
1 748 748 60.9219 32.9836 43.1801
1 749 749 59.9650 33.0286 42.1280
1 750 750 58.9851 34.1822 42.0460
1 751 751 58.6844 34.8110 40.7165
1 752 752 59.1222 34.1259 39.5701
1 753 753 59.8496 34.2385 38.3343
1 754 754 60.9541 34.9089 37.5876
1 755 755 60.6883 35.3052 36.1577
1 756 756 60.7280 33.9368 35.6685
1 757 757 60.5906 32.5814 36.1172
1 758 758 61.7925 32.6411 35.3252
1 759 759 63.3509 32.2410 35.3084
1 760 760 64.6504 32.1990 35.5528
1 761 761 65.4890 32.6197 34.4740
1 762 762 66.0321 32.4736 33.1419
1 763 763 67.1568 31.9123 32.4962
1 764 764 66.3150 32.8216 31.6468
1 765 765 66.9932 33.9866 31.5762
1 766 766 67.4231 34.1545 30.2370
1 767 767 67.2369 35.5013 30.7025
1 768 768 68.2876 36.4870 30.3266
1 769 769 68.9126 35.7883 29.2587
1 770 770 70.0009 36.2881 29.9057
1 771 771 70.1960 35.9644 31.2102
1 772 772 70.0383 34.5155 31.5893
1 773 773 70.4003 35.3837 30.6042
1 774 774 70.4077 33.9307 30.4403
1 775 775 71.2067 34.7219 29.7758
1 776 776 72.6317 34.9711 29.3613
1 777 777 72.5263 35.7891 30.5265
1 778 778 73.8037 36.1422 30.2059
1 779 779 74.6952 35.7214 31.1991
1 780 780 75.8257 35.8710 31.9326
1 781 781 75.6833 34.9309 33.2464
1 782 782 75.2735 33.5126 33.0431
1 783 783 74.6511 32.2449 33.2360
1 784 784 75.3832 31.5850 32.0372
1 785 785 73.8757 31.7448 31.8788
1 786 786 72.4581 31.3652 31.3015
1 787 787 73.1133 32.1872 30.2723
1 788 788 71.9205 32.7419 30.5530
1 789 789 71.2399 32.0765 29.4869
1 790 790 70.4773 30.9843 29.9731
1 791 791 70.4903 31.5461 28.6827
1 792 792 71.3751 31.5764 27.6723
1 793 793 71.5078 30.2846 27.8377
1 794 794 71.1248 29.0000 28.0855
1 795 795 70.6134 28.2469 29.1282
1 796 796 69.8284 27.6871 30.1760
1 797 797 69.4623 28.6410 31.2004
1 798 798 68.2251 28.2335 31.1418
1 799 799 67.1001 27.7422 31.8540
1 800 800 66.2884 26.7231 31.0223
1 801 801 64.8721 26.2154 31.0624
1 802 802 64.1374 26.4718 29.8967
1 803 803 63.5564 27.4420 30.6709
1 804 804 64.0741 28.0663 31.8905
1 805 805 63.7069 29.0878 30.9027
1 806 806 62.2927 29.2166 30.6639
1 807 807 61.7658 28.1597 31.2352
1 808 808 61.9218 27.1846 32.2880
1 809 809 61.4508 28.1638 33.1292
1 810 810 60.7960 27.0255 33.6221
1 811 811 60.5886 25.3763 33.5505
1 812 812 59.2637 25.2581 34.0329
1 813 813 57.7622 25.0273 34.2000
1 814 814 56.4453 25.5216 34.4228
1 815 815 56.9338 26.2757 35.4533
1 816 816 55.6638 26.9496 35.8594
1 817 817 54.3251 27.1836 36.1120
1 818 818 52.8436 27.1867 35.9270
1 819 819 53.0426 28.4908 36.6159
1 820 820 52.5789 29.6565 37.1558
1 821 821 52.1274 30.6201 38.0242
1 822 822 51.2735 31.3622 37.4083
1 823 823 52.1998 32.2089 38.0717
1 824 824 51.1911 33.0299 38.5589
1 825 825 51.1332 34.0057 39.5923
1 826 826 51.8155 35.3742 39.4172
1 827 827 51.6718 36.4402 38.3340
1 828 828 52.7884 37.1954 38.6863
1 829 829 52.8178 38.1340 37.4726
1 830 830 52.5758 39.1080 36.5585
1 831 831 53.1377 39.5715 37.8334
1 832 832 54.1401 38.5945 37.4097
1 833 833 53.9425 39.4356 38.5114
1 834 834 55.1417 39.9162 37.7133
1 835 835 54.4375 39.9504 36.4785
1 836 836 54.3726 39.6652 35.0687
1 837 837 53.3118 38.8919 35.4214
1 838 838 51.9604 38.8444 35.5215
1 839 839 51.9836 40.3122 35.8406
1 840 840 52.4007 40.7345 34.5886
1 841 841 52.9169 42.1055 34.3475
1 842 842 52.7296 41.6850 32.8647
1 843 843 53.3854 42.9845 32.8777
1 844 844 53.2369 43.2146 31.4550
1 845 845 54.5942 43.2380 30.9571
1 846 846 54.1843 41.8544 31.2581
1 847 847 54.4233 40.6564 30.5969
1 848 848 55.8008 40.3828 30.5564
1 849 849 56.9197 40.3364 31.4693
1 850 850 57.1718 38.9947 31.1517
1 851 851 58.4974 38.8048 31.5357
1 852 852 59.4795 38.9638 30.3871
1 853 853 60.3611 37.9619 29.6687
1 854 854 60.5386 36.5110 30.2127
1 855 855 60.2489 37.1481 31.4269
1 856 856 59.2673 36.1840 31.2668
1 857 857 57.9990 36.1609 30.7199
1 858 858 57.1166 36.9735 29.9338
1 859 859 55.8333 37.0334 29.6290
1 860 860 56.6543 36.8605 28.4172
1 861 861 57.2743 37.4708 27.3972
1 862 862 58.3639 37.7282 26.4005
1 863 863 58.9011 36.3343 26.1431
1 864 864 57.6876 35.8181 25.5934
1 865 865 56.7664 36.4986 24.6522
1 866 866 58.0056 36.0504 24.3528
1 867 867 58.2338 36.7480 23.0358
1 868 868 59.0229 37.3259 24.1228
1 869 869 58.6982 38.5431 23.5379
1 870 870 59.7166 39.4893 23.7037
1 871 871 60.6981 38.4516 24.0816
1 872 872 61.8800 38.8534 24.1733
1 873 873 63.0893 38.4968 23.5772
1 874 874 63.3725 37.3458 24.1168
1 875 875 63.5401 36.4294 25.2121
1 876 876 63.7517 34.9435 25.2100
1 877 877 62.7924 34.0370 25.7059
1 878 878 61.9794 35.1468 26.0537
1 879 879 61.7396 33.8925 26.8038
1 880 880 61.4486 32.4440 26.9353
1 881 881 62.6845 31.9159 27.2665